 Entering Gaussian System, Link 0=/software/g16/g16
 Input=E-isomer.com
 Output=E-isomer.log
 Initial command:
 /software/g16/l1.exe "/scratch/Gau-1059686.inp" -scrdir="/scratch/"
 Default CPUs for threads: 0-15
 Default is to use a total of  16 processors:
                               16 via shared-memory
                                1 via Linda
 Entering Link 1 = /software/g16/l1.exe PID=   1059687.
  
 Copyright (c) 1988-2019, Gaussian, Inc.  All Rights Reserved.
  
 This is part of the Gaussian(R) 16 program.  It is based on
 the Gaussian(R) 09 system (copyright 2009, Gaussian, Inc.),
 the Gaussian(R) 03 system (copyright 2003, Gaussian, Inc.),
 the Gaussian(R) 98 system (copyright 1998, Gaussian, Inc.),
 the Gaussian(R) 94 system (copyright 1995, Gaussian, Inc.),
 the Gaussian 92(TM) system (copyright 1992, Gaussian, Inc.),
 the Gaussian 90(TM) system (copyright 1990, Gaussian, Inc.),
 the Gaussian 88(TM) system (copyright 1988, Gaussian, Inc.),
 the Gaussian 86(TM) system (copyright 1986, Carnegie Mellon
 University), and the Gaussian 82(TM) system (copyright 1983,
 Carnegie Mellon University). Gaussian is a federally registered
 trademark of Gaussian, Inc.
  
 This software contains proprietary and confidential information,
 including trade secrets, belonging to Gaussian, Inc.
  
 This software is provided under written license and may be
 used, copied, transmitted, or stored only in accord with that
 written license.
  
 The following legend is applicable only to US Government
 contracts under FAR:
  
                    RESTRICTED RIGHTS LEGEND
  
 Use, reproduction and disclosure by the US Government is
 subject to restrictions as set forth in subparagraphs (a)
 and (c) of the Commercial Computer Software - Restricted
 Rights clause in FAR 52.227-19.
  
 Gaussian, Inc.
 340 Quinnipiac St., Bldg. 40, Wallingford CT 06492
  
  
 ---------------------------------------------------------------
 Warning -- This program may not be used in any manner that
 competes with the business of Gaussian, Inc. or will provide
 assistance to any competitor of Gaussian, Inc.  The licensee
 of this program is prohibited from giving any competitor of
 Gaussian, Inc. access to this program.  By using this program,
 the user acknowledges that Gaussian, Inc. is engaged in the
 business of creating and licensing software in the field of
 computational chemistry and represents and warrants to the
 licensee that it is not a competitor of Gaussian, Inc. and that
 it will not use this program in any manner prohibited above.
 ---------------------------------------------------------------
  

 Cite this work as:
 Gaussian 16, Revision C.01,
 M. J. Frisch, G. W. Trucks, H. B. Schlegel, G. E. Scuseria, 
 M. A. Robb, J. R. Cheeseman, G. Scalmani, V. Barone, 
 G. A. Petersson, H. Nakatsuji, X. Li, M. Caricato, A. V. Marenich, 
 J. Bloino, B. G. Janesko, R. Gomperts, B. Mennucci, H. P. Hratchian, 
 J. V. Ortiz, A. F. Izmaylov, J. L. Sonnenberg, D. Williams-Young, 
 F. Ding, F. Lipparini, F. Egidi, J. Goings, B. Peng, A. Petrone, 
 T. Henderson, D. Ranasinghe, V. G. Zakrzewski, J. Gao, N. Rega, 
 G. Zheng, W. Liang, M. Hada, M. Ehara, K. Toyota, R. Fukuda, 
 J. Hasegawa, M. Ishida, T. Nakajima, Y. Honda, O. Kitao, H. Nakai, 
 T. Vreven, K. Throssell, J. A. Montgomery, Jr., J. E. Peralta, 
 F. Ogliaro, M. J. Bearpark, J. J. Heyd, E. N. Brothers, K. N. Kudin, 
 V. N. Staroverov, T. A. Keith, R. Kobayashi, J. Normand, 
 K. Raghavachari, A. P. Rendell, J. C. Burant, S. S. Iyengar, 
 J. Tomasi, M. Cossi, J. M. Millam, M. Klene, C. Adamo, R. Cammi, 
 J. W. Ochterski, R. L. Martin, K. Morokuma, O. Farkas, 
 J. B. Foresman, and D. J. Fox, Gaussian, Inc., Wallingford CT, 2019.
 
 ******************************************
 Gaussian 16:  ES64L-G16RevC.01  3-Jul-2019
                31-Dec-2021 
 ******************************************
 SetSPE:  set environment variable "MP_BIND" = "yes"
 SetSPE:  set environment variable "MP_BLIST" = "0,1,2,3,4,5,6,7,8,9,10,11,12,13,14,15"
 -----------------------------------------------------------------
 #N M062X/gen extraBasis OPT FREQ=NoRaman Integral(Grid=UltraFine)
 -----------------------------------------------------------------
 1/18=20,19=15,26=4,38=1/1,3;
 2/9=110,12=2,17=6,18=5,40=1/2;
 3/5=7,10=1,11=2,25=1,30=1,71=1,74=-55,75=-5/1,2,3;
 4//1;
 5/5=2,38=5/2;
 6/7=2,8=2,9=2,10=2,28=1/1;
 7//1,2,3,16;
 1/18=20,19=15,26=4/3(2);
 2/9=110/2;
 99//99;
 2/9=110/2;
 3/5=7,6=1,11=2,25=1,30=1,71=1,74=-55,75=-5,82=7/1,2,3;
 4/5=5,16=3,69=1/1;
 5/5=2,38=5/2;
 7//1,2,3,16;
 1/18=20,19=15,26=4/3(-5);
 2/9=110/2;
 6/7=2,8=2,9=2,10=2,19=2,28=1/1;
 99/9=1/99;
 -------------------------------------------------------
 E-isomer - CH: def2svp - NOSF: def2tzvp - N O12 O13: +d
 -------------------------------------------------------
 Symbolic Z-matrix:
 Charge =  0 Multiplicity = 1
 C
 C                    1    B1
 C                    2    B2       1    A1
 C                    3    B3       2    A2       1    D1       0
 C                    4    B4       3    A3       2    D2       0
 C                    1    B5       2    A4       3    D3       0
 H                    1    B6       2    A5       3    D4       0
 H                    3    B7       2    A6       1    D5       0
 H                    4    B8       3    A7       2    D6       0
 H                    6    B9       1    A8       2    D7       0
 N                    2    B10      1    A9       6    D8       0
 O                    11   B11      2    A10      1    D9       0
 O                    11   B12      2    A11      1    D10      0
 C                    5    B13      4    A12      3    D11      0
 C                    14   B14      5    A13      4    D12      0
 C                    15   B15      14   A14      5    D13      0
 H                    16   B16      15   A15      14   D14      0
 H                    16   B17      15   A16      14   D15      0
 H                    16   B18      15   A17      14   D16      0
 C                    14   B19      5    A18      4    D17      0
 H                    20   B20      14   A19      5    D18      0
 H                    20   B21      14   A20      5    D19      0
 H                    20   B22      14   A21      5    D20      0
 S                    15   B23      14   A22      5    D21      0
 O                    24   B24      15   A23      14   D22      0
 O                    24   B25      15   A24      14   D23      0
 C                    24   B26      15   A25      14   D24      0
 F                    27   B27      24   A26      15   D25      0
 F                    27   B28      24   A27      15   D26      0
 F                    27   B29      24   A28      15   D27      0
 O                    24   B30      15   A29      14   D28      0
       Variables:
  B1                    1.4014                   
  B2                    1.4014                   
  B3                    1.4014                   
  B4                    1.4014                   
  B5                    1.4014                   
  B6                    1.07                     
  B7                    1.07                     
  B8                    1.07                     
  B9                    1.07                     
  B10                   1.47                     
  B11                   1.1968                   
  B12                   1.1968                   
  B13                   1.54                     
  B14                   1.3552                   
  B15                   1.54                     
  B16                   1.07                     
  B17                   1.07                     
  B18                   1.07                     
  B19                   1.54                     
  B20                   1.07                     
  B21                   1.07                     
  B22                   1.07                     
  B23                   2.53493                  
  B24                   1.4696                   
  B25                   1.4696                   
  B26                   1.78                     
  B27                   1.35                     
  B28                   1.35                     
  B29                   1.35                     
  B30                   1.67                     
  A1                  120.                       
  A2                  120.                       
  A3                  120.                       
  A4                  120.                       
  A5                  120.                       
  A6                  120.                       
  A7                  120.                       
  A8                  120.                       
  A9                  120.                       
  A10                 120.                       
  A11                 120.                       
  A12                 120.                       
  A13                 120.                       
  A14                 120.                       
  A15                 109.47122                  
  A16                 109.47122                  
  A17                 109.47122                  
  A18                 120.                       
  A19                 109.47122                  
  A20                 109.47122                  
  A21                 109.47122                  
  A22                 113.07018                  
  A23                 141.60215                  
  A24                  91.8085                   
  A25                  91.8085                   
  A26                 109.47122                  
  A27                 109.47122                  
  A28                 109.47122                  
  A29                  32.13093                  
  D1                    0.                       
  D2                    0.                       
  D3                    0.                       
  D4                 -180.                       
  D5                 -180.                       
  D6                  180.                       
  D7                  180.                       
  D8                  180.                       
  D9                    0.                       
  D10                 180.                       
  D11                -180.                       
  D12                -180.                       
  D13                   0.                       
  D14                 -30.                       
  D15                  90.                       
  D16                -150.                       
  D17                   0.                       
  D18                 -30.                       
  D19                  90.                       
  D20                -150.                       
  D21                 137.53727                  
  D22                 109.72798                  
  D23                 -15.49601                  
  D24                -125.04803                  
  D25                 -87.44069                  
  D26                 152.55931                  
  D27                  32.55931                  
  D28                 109.72798                  
 
     9 tetrahedral angles replaced.

 GradGradGradGradGradGradGradGradGradGradGradGradGradGradGradGradGradGrad
 Berny optimization.
 Initialization pass.
                           ----------------------------
                           !    Initial Parameters    !
                           ! (Angstroms and Degrees)  !
 --------------------------                            --------------------------
 ! Name  Definition              Value          Derivative Info.                !
 --------------------------------------------------------------------------------
 ! R1    R(1,2)                  1.4014         estimate D2E/DX2                !
 ! R2    R(1,6)                  1.4014         estimate D2E/DX2                !
 ! R3    R(1,7)                  1.07           estimate D2E/DX2                !
 ! R4    R(2,3)                  1.4014         estimate D2E/DX2                !
 ! R5    R(2,11)                 1.47           estimate D2E/DX2                !
 ! R6    R(3,4)                  1.4014         estimate D2E/DX2                !
 ! R7    R(3,8)                  1.07           estimate D2E/DX2                !
 ! R8    R(4,5)                  1.4014         estimate D2E/DX2                !
 ! R9    R(4,9)                  1.07           estimate D2E/DX2                !
 ! R10   R(5,6)                  1.4014         estimate D2E/DX2                !
 ! R11   R(5,14)                 1.54           estimate D2E/DX2                !
 ! R12   R(6,10)                 1.07           estimate D2E/DX2                !
 ! R13   R(11,12)                1.1968         estimate D2E/DX2                !
 ! R14   R(11,13)                1.1968         estimate D2E/DX2                !
 ! R15   R(14,15)                1.3552         estimate D2E/DX2                !
 ! R16   R(14,20)                1.54           estimate D2E/DX2                !
 ! R17   R(15,16)                1.54           estimate D2E/DX2                !
 ! R18   R(15,31)                1.43           estimate D2E/DX2                !
 ! R19   R(16,17)                1.07           estimate D2E/DX2                !
 ! R20   R(16,18)                1.07           estimate D2E/DX2                !
 ! R21   R(16,19)                1.07           estimate D2E/DX2                !
 ! R22   R(20,21)                1.07           estimate D2E/DX2                !
 ! R23   R(20,22)                1.07           estimate D2E/DX2                !
 ! R24   R(20,23)                1.07           estimate D2E/DX2                !
 ! R25   R(24,25)                1.4696         estimate D2E/DX2                !
 ! R26   R(24,26)                1.4696         estimate D2E/DX2                !
 ! R27   R(24,27)                1.78           estimate D2E/DX2                !
 ! R28   R(24,31)                1.67           estimate D2E/DX2                !
 ! R29   R(27,28)                1.35           estimate D2E/DX2                !
 ! R30   R(27,29)                1.35           estimate D2E/DX2                !
 ! R31   R(27,30)                1.35           estimate D2E/DX2                !
 ! A1    A(2,1,6)              120.0            estimate D2E/DX2                !
 ! A2    A(2,1,7)              120.0            estimate D2E/DX2                !
 ! A3    A(6,1,7)              120.0            estimate D2E/DX2                !
 ! A4    A(1,2,3)              120.0            estimate D2E/DX2                !
 ! A5    A(1,2,11)             120.0            estimate D2E/DX2                !
 ! A6    A(3,2,11)             120.0            estimate D2E/DX2                !
 ! A7    A(2,3,4)              120.0            estimate D2E/DX2                !
 ! A8    A(2,3,8)              120.0            estimate D2E/DX2                !
 ! A9    A(4,3,8)              120.0            estimate D2E/DX2                !
 ! A10   A(3,4,5)              120.0            estimate D2E/DX2                !
 ! A11   A(3,4,9)              120.0            estimate D2E/DX2                !
 ! A12   A(5,4,9)              120.0            estimate D2E/DX2                !
 ! A13   A(4,5,6)              120.0            estimate D2E/DX2                !
 ! A14   A(4,5,14)             120.0            estimate D2E/DX2                !
 ! A15   A(6,5,14)             120.0            estimate D2E/DX2                !
 ! A16   A(1,6,5)              120.0            estimate D2E/DX2                !
 ! A17   A(1,6,10)             120.0            estimate D2E/DX2                !
 ! A18   A(5,6,10)             120.0            estimate D2E/DX2                !
 ! A19   A(2,11,12)            120.0            estimate D2E/DX2                !
 ! A20   A(2,11,13)            120.0            estimate D2E/DX2                !
 ! A21   A(12,11,13)           120.0            estimate D2E/DX2                !
 ! A22   A(5,14,15)            120.0            estimate D2E/DX2                !
 ! A23   A(5,14,20)            120.0            estimate D2E/DX2                !
 ! A24   A(15,14,20)           120.0            estimate D2E/DX2                !
 ! A25   A(14,15,16)           120.0            estimate D2E/DX2                !
 ! A26   A(14,15,31)           120.0            estimate D2E/DX2                !
 ! A27   A(16,15,31)           120.0            estimate D2E/DX2                !
 ! A28   A(15,16,17)           109.4712         estimate D2E/DX2                !
 ! A29   A(15,16,18)           109.4712         estimate D2E/DX2                !
 ! A30   A(15,16,19)           109.4712         estimate D2E/DX2                !
 ! A31   A(17,16,18)           109.4712         estimate D2E/DX2                !
 ! A32   A(17,16,19)           109.4712         estimate D2E/DX2                !
 ! A33   A(18,16,19)           109.4712         estimate D2E/DX2                !
 ! A34   A(14,20,21)           109.4712         estimate D2E/DX2                !
 ! A35   A(14,20,22)           109.4712         estimate D2E/DX2                !
 ! A36   A(14,20,23)           109.4712         estimate D2E/DX2                !
 ! A37   A(21,20,22)           109.4712         estimate D2E/DX2                !
 ! A38   A(21,20,23)           109.4712         estimate D2E/DX2                !
 ! A39   A(22,20,23)           109.4712         estimate D2E/DX2                !
 ! A40   A(25,24,26)           109.4712         estimate D2E/DX2                !
 ! A41   A(25,24,27)           109.4712         estimate D2E/DX2                !
 ! A42   A(25,24,31)           109.4712         estimate D2E/DX2                !
 ! A43   A(26,24,27)           109.4712         estimate D2E/DX2                !
 ! A44   A(26,24,31)           109.4712         estimate D2E/DX2                !
 ! A45   A(27,24,31)           109.4712         estimate D2E/DX2                !
 ! A46   A(24,27,28)           109.4712         estimate D2E/DX2                !
 ! A47   A(24,27,29)           109.4712         estimate D2E/DX2                !
 ! A48   A(24,27,30)           109.4712         estimate D2E/DX2                !
 ! A49   A(28,27,29)           109.4712         estimate D2E/DX2                !
 ! A50   A(28,27,30)           109.4712         estimate D2E/DX2                !
 ! A51   A(29,27,30)           109.4712         estimate D2E/DX2                !
 ! A52   A(15,31,24)           109.4712         estimate D2E/DX2                !
 ! D1    D(6,1,2,3)              0.0            estimate D2E/DX2                !
 ! D2    D(6,1,2,11)           180.0            estimate D2E/DX2                !
 ! D3    D(7,1,2,3)            180.0            estimate D2E/DX2                !
 ! D4    D(7,1,2,11)             0.0            estimate D2E/DX2                !
 ! D5    D(2,1,6,5)              0.0            estimate D2E/DX2                !
 ! D6    D(2,1,6,10)           180.0            estimate D2E/DX2                !
 ! D7    D(7,1,6,5)            180.0            estimate D2E/DX2                !
 ! D8    D(7,1,6,10)             0.0            estimate D2E/DX2                !
 ! D9    D(1,2,3,4)              0.0            estimate D2E/DX2                !
 ! D10   D(1,2,3,8)            180.0            estimate D2E/DX2                !
 ! D11   D(11,2,3,4)           180.0            estimate D2E/DX2                !
 ! D12   D(11,2,3,8)             0.0            estimate D2E/DX2                !
 ! D13   D(1,2,11,12)            0.0            estimate D2E/DX2                !
 ! D14   D(1,2,11,13)          180.0            estimate D2E/DX2                !
 ! D15   D(3,2,11,12)          180.0            estimate D2E/DX2                !
 ! D16   D(3,2,11,13)            0.0            estimate D2E/DX2                !
 ! D17   D(2,3,4,5)              0.0            estimate D2E/DX2                !
 ! D18   D(2,3,4,9)            180.0            estimate D2E/DX2                !
 ! D19   D(8,3,4,5)            180.0            estimate D2E/DX2                !
 ! D20   D(8,3,4,9)              0.0            estimate D2E/DX2                !
 ! D21   D(3,4,5,6)              0.0            estimate D2E/DX2                !
 ! D22   D(3,4,5,14)           180.0            estimate D2E/DX2                !
 ! D23   D(9,4,5,6)            180.0            estimate D2E/DX2                !
 ! D24   D(9,4,5,14)             0.0            estimate D2E/DX2                !
 ! D25   D(4,5,6,1)              0.0            estimate D2E/DX2                !
 ! D26   D(4,5,6,10)           180.0            estimate D2E/DX2                !
 ! D27   D(14,5,6,1)           180.0            estimate D2E/DX2                !
 ! D28   D(14,5,6,10)            0.0            estimate D2E/DX2                !
 ! D29   D(4,5,14,15)          180.0            estimate D2E/DX2                !
 ! D30   D(4,5,14,20)            0.0            estimate D2E/DX2                !
 ! D31   D(6,5,14,15)            0.0            estimate D2E/DX2                !
 ! D32   D(6,5,14,20)          180.0            estimate D2E/DX2                !
 ! D33   D(5,14,15,16)           0.0            estimate D2E/DX2                !
 ! D34   D(5,14,15,31)         180.0            estimate D2E/DX2                !
 ! D35   D(20,14,15,16)        180.0            estimate D2E/DX2                !
 ! D36   D(20,14,15,31)          0.0            estimate D2E/DX2                !
 ! D37   D(5,14,20,21)         -30.0            estimate D2E/DX2                !
 ! D38   D(5,14,20,22)          90.0            estimate D2E/DX2                !
 ! D39   D(5,14,20,23)        -150.0            estimate D2E/DX2                !
 ! D40   D(15,14,20,21)        150.0            estimate D2E/DX2                !
 ! D41   D(15,14,20,22)        -90.0            estimate D2E/DX2                !
 ! D42   D(15,14,20,23)         30.0            estimate D2E/DX2                !
 ! D43   D(14,15,16,17)        -30.0            estimate D2E/DX2                !
 ! D44   D(14,15,16,18)         90.0            estimate D2E/DX2                !
 ! D45   D(14,15,16,19)       -150.0            estimate D2E/DX2                !
 ! D46   D(31,15,16,17)        150.0            estimate D2E/DX2                !
 ! D47   D(31,15,16,18)        -90.0            estimate D2E/DX2                !
 ! D48   D(31,15,16,19)         30.0            estimate D2E/DX2                !
 ! D49   D(14,15,31,24)        -90.0            estimate D2E/DX2                !
 ! D50   D(16,15,31,24)         90.0            estimate D2E/DX2                !
 ! D51   D(25,24,27,28)         60.0            estimate D2E/DX2                !
 ! D52   D(25,24,27,29)        -60.0            estimate D2E/DX2                !
 ! D53   D(25,24,27,30)        180.0            estimate D2E/DX2                !
 ! D54   D(26,24,27,28)        180.0            estimate D2E/DX2                !
 ! D55   D(26,24,27,29)         60.0            estimate D2E/DX2                !
 ! D56   D(26,24,27,30)        -60.0            estimate D2E/DX2                !
 ! D57   D(31,24,27,28)        -60.0            estimate D2E/DX2                !
 ! D58   D(31,24,27,29)       -180.0            estimate D2E/DX2                !
 ! D59   D(31,24,27,30)         60.0            estimate D2E/DX2                !
 ! D60   D(25,24,31,15)        180.0            estimate D2E/DX2                !
 ! D61   D(26,24,31,15)         60.0            estimate D2E/DX2                !
 ! D62   D(27,24,31,15)        -60.0            estimate D2E/DX2                !
 --------------------------------------------------------------------------------
 Trust Radius=3.00D-01 FncErr=1.00D-07 GrdErr=1.00D-06 EigMax=2.50D+02 EigMin=1.00D-04
 Number of steps in this run=    155 maximum allowed number of steps=    186.
 GradGradGradGradGradGradGradGradGradGradGradGradGradGradGradGradGradGrad

                          Input orientation:                          
 ---------------------------------------------------------------------
 Center     Atomic      Atomic             Coordinates (Angstroms)
 Number     Number       Type             X           Y           Z
 ---------------------------------------------------------------------
      1          6           0        0.000000    0.000000    0.000000
      2          6           0        0.000000    0.000000    1.401400
      3          6           0        1.213648    0.000000    2.102100
      4          6           0        2.427296    0.000000    1.401400
      5          6           0        2.427296    0.000000    0.000000
      6          6           0        1.213648    0.000000   -0.700700
      7          1           0       -0.926647    0.000000   -0.535000
      8          1           0        1.213648    0.000000    3.172100
      9          1           0        3.353943    0.000000    1.936400
     10          1           0        1.213648    0.000000   -1.770700
     11          7           0       -1.273057    0.000000    2.136400
     12          8           0       -2.309517    0.000000    1.538000
     13          8           0       -1.273057    0.000000    3.333200
     14          6           0        3.760975    0.000000   -0.770000
     15          6           0        3.760975    0.000000   -2.125200
     16          6           0        2.427296    0.000000   -2.895200
     17          1           0        1.681588   -0.504403   -2.316929
     18          1           0        2.118414    1.008806   -3.073533
     19          1           0        2.555239   -0.504403   -3.830138
     20          6           0        5.094654    0.000000    0.000000
     21          1           0        4.966711    0.504403    0.934938
     22          1           0        5.403537   -1.008806    0.178333
     23          1           0        5.840362    0.504403   -0.578271
     24         16           0        5.481478    1.574492   -3.118533
     25          8           0        6.754189    1.574493   -3.853333
     26          8           0        5.657202    2.267269   -1.834436
     27          6           0        4.240953    2.413592   -4.080517
     28          9           0        4.079530    1.777195   -5.260111
     29          9           0        4.630664    3.686384   -4.305517
     30          9           0        3.071819    2.413591   -3.405517
     31          8           0        4.999391    0.000001   -2.840200
 ---------------------------------------------------------------------
                    Distance matrix (angstroms):
                    1          2          3          4          5
     1  C    0.000000
     2  C    1.401400   0.000000
     3  C    2.427296   1.401400   0.000000
     4  C    2.802800   2.427296   1.401400   0.000000
     5  C    2.427296   2.802800   2.427296   1.401400   0.000000
     6  C    1.401400   2.427296   2.802800   2.427296   1.401400
     7  H    1.070000   2.146700   3.396345   3.872800   3.396345
     8  H    3.396345   2.146700   1.070000   2.146700   3.396345
     9  H    3.872800   3.396345   2.146700   1.070000   2.146700
    10  H    2.146700   3.396345   3.872800   3.396345   2.146700
    11  N    2.486942   1.470000   2.486942   3.772644   4.272800
    12  O    2.774763   2.313553   3.568038   4.738782   4.980245
    13  O    3.568038   2.313553   2.774763   4.174262   4.980245
    14  C    3.838989   4.342800   3.838989   2.548270   1.540000
    15  C    4.319885   5.155758   4.935478   3.770359   2.509019
    16  C    3.778088   4.934829   5.142562   4.296600   2.895200
    17  H    2.906944   4.111950   4.472271   3.825764   2.485692
    18  H    3.866778   5.052761   5.350091   4.597622   3.249570
    19  H    4.631806   5.844027   6.102928   5.257355   3.865326
    20  C    5.094654   5.283883   4.413732   3.013092   2.667358
    21  H    5.079050   5.014003   3.962597   2.630711   2.752664
    22  H    5.499791   5.631322   4.719506   3.372179   3.147618
    23  H    5.890556   6.187354   5.370782   3.977756   3.498263
    24  S    6.500067   7.277048   6.924479   5.677750   4.640291
    25  O    7.933869   8.701168   8.285156   6.986648   6.004099
    26  O    6.364715   6.900368   6.354683   5.103277   4.351776
    27  C    6.360953   7.339109   7.294844   6.258290   5.075962
    28  F    6.889830   8.011037   8.097768   7.089713   5.792846
    29  F    7.319149   8.222005   8.143892   7.142349   6.081261
    30  F    5.182570   6.194186   6.293811   5.417313   4.223550
    31  O    5.749839   6.556301   6.225607   4.960529   3.831763
                    6          7          8          9         10
     6  C    0.000000
     7  H    2.146700   0.000000
     8  H    3.872800   4.280590   0.000000
     9  H    3.396345   4.942800   2.471400   0.000000
    10  H    1.070000   2.471400   4.942800   4.280590   0.000000
    11  N    3.772644   2.693767   2.693767   4.631321   4.631321
    12  O    4.174262   2.491918   3.883680   5.677455   4.833237
    13  O    4.738782   3.883680   2.491918   4.833237   5.677455
    14  C    2.548270   4.693509   4.693509   2.736837   2.736837
    15  C    2.918574   4.950004   5.877947   4.081944   2.571876
    16  C    2.507742   4.101156   6.187493   4.919658   1.654522
    17  H    1.756584   3.198841   5.531982   4.598043   0.878497
    18  H    2.732513   4.090750   6.390949   5.257723   1.879804
    19  H    3.442044   4.820362   7.147421   5.843398   2.509098
    20  C    3.943753   6.045022   5.012427   2.603790   4.265863
    21  H    4.124950   6.094818   4.398272   1.964273   4.654071
    22  H    4.398358   6.449633   5.247427   2.882589   4.729861
    23  H    4.655738   6.785920   5.977139   3.572152   4.804456
    24  S    5.151632   7.086447   7.763083   5.705943   4.744476
    25  O    6.566256   8.513848   9.084786   6.896500   6.124866
    26  O    5.115763   7.083510   7.067608   4.966358   4.988962
    27  C    5.139374   6.715669   8.221341   6.543355   4.508354
    28  F    5.670973   7.109635   9.081513   7.448132   4.852596
    29  F    6.185477   7.660935   9.010004   7.360772   5.629451
    30  F    4.073604   5.482063   7.248673   5.868653   3.456999
    31  O    4.348484   6.358607   7.104900   5.052070   3.933915
                   11         12         13         14         15
    11  N    0.000000
    12  O    1.196800   0.000000
    13  O    1.196800   2.072918   0.000000
    14  C    5.812800   6.494439   6.494439   0.000000
    15  C    6.595659   7.090127   7.425336   1.355200   0.000000
    16  C    6.245768   6.487731   7.244693   2.509019   1.540000
    17  H    5.368099   5.571698   6.395960   2.640315   2.148263
    18  H    6.297870   6.472287   7.318879   3.003658   2.148263
    19  H    7.107028   7.262036   8.137793   3.327561   2.148263
    20  C    6.716543   7.562221   7.187348   1.540000   2.509019
    21  H    6.374374   7.318579   6.703789   2.148263   3.327561
    22  H    7.030549   7.896681   7.453038   2.148263   3.003658
    23  H    7.630505   8.435256   8.133558   2.148263   2.640315
    24  S    8.701557   9.212053   9.472467   3.309798   2.534929
    25  O   10.138669  10.662845  10.888616   4.576604   3.798000
    26  O    8.302803   8.943290   8.937195   3.141529   2.969971
    27  C    8.653311   8.961128   9.549499   4.124964   3.143098
    28  F    9.301451   9.496981  10.278794   4.839524   3.617674
    29  F    9.483757   9.792968  10.334087   5.181280   4.370305
    30  F    7.444207   7.695619   8.373391   3.639547   2.817724
    31  O    8.006882   8.519904   8.800823   2.412344   1.430000
                   16         17         18         19         20
    16  C    0.000000
    17  H    1.070000   0.000000
    18  H    1.070000   1.747303   0.000000
    19  H    1.070000   1.747303   1.747303   0.000000
    20  C    3.936621   4.155912   4.395714   4.623095   0.000000
    21  H    4.623095   4.731211   4.943183   5.434963   1.070000
    22  H    4.395714   4.509286   5.043553   4.943183   1.070000
    23  H    4.155912   4.619094   4.509286   4.731211   1.070000
    24  S    3.443389   4.404945   3.410605   3.659379   3.514813
    25  O    4.703089   5.693297   4.734818   4.685459   4.481212
    26  O    4.086321   4.870366   3.955011   4.613801   2.970206
    27  C    3.243417   4.263248   2.737264   3.379203   4.817141
    28  F    3.388378   4.429236   3.036037   3.094184   5.644260
    29  F    4.520315   5.496747   3.872804   4.700645   5.687019
    30  F    2.549755   3.410638   1.729918   2.993634   4.638408
    31  O    2.572683   3.396477   3.061399   2.684824   2.841797
                   21         22         23         24         25
    21  H    0.000000
    22  H    1.747303   0.000000
    23  H    1.747303   1.747303   0.000000
    24  S    4.223826   4.189133   2.779716   0.000000
    25  O    5.221849   4.975141   3.564577   1.469600   0.000000
    26  O    3.354684   3.853343   2.172371   1.469600   2.399847
    27  C    5.415395   5.585894   4.297538   1.780000   2.659333
    28  F    6.386370   6.252317   5.161410   2.567664   3.028846
    29  F    6.140056   6.538123   5.047845   2.567664   3.028846
    30  F    5.106384   5.476649   4.393535   2.567664   3.803218
    31  O    3.808826   3.208203   2.465355   1.670000   2.566082
                   26         27         28         29         30
    26  O    0.000000
    27  C    2.659333   0.000000
    28  F    3.803218   1.350000   0.000000
    29  F    3.028846   1.350000   2.204541   0.000000
    30  F    3.028846   1.350000   2.204541   2.204541   0.000000
    31  O    2.566082   2.817629   3.140149   3.984035   3.140149
                   31
    31  O    0.000000
 Stoichiometry    C11H10F3NO5S
 Framework group  C1[X(C11H10F3NO5S)]
 Deg. of freedom    87
 Full point group                 C1      NOp   1
 Largest Abelian subgroup         C1      NOp   1
 Largest concise Abelian subgroup C1      NOp   1
                         Standard orientation:                         
 ---------------------------------------------------------------------
 Center     Atomic      Atomic             Coordinates (Angstroms)
 Number     Number       Type             X           Y           Z
 ---------------------------------------------------------------------
      1          6           0       -3.121639   -0.998033    0.440530
      2          6           0       -4.074641   -0.122362   -0.096974
      3          6           0       -3.710341    1.187928   -0.435124
      4          6           0       -2.393038    1.622548   -0.235771
      5          6           0       -1.440036    0.746877    0.301732
      6          6           0       -1.804337   -0.563413    0.639883
      7          1           0       -3.399791   -1.998469    0.698715
      8          1           0       -4.437979    1.856522   -0.845520
      9          1           0       -2.114886    2.622984   -0.493957
     10          1           0       -1.076698   -1.232007    1.050278
     11          7           0       -5.456427   -0.578257   -0.306085
     12          8           0       -5.767541   -1.697250   -0.017304
     13          8           0       -6.270294    0.169568   -0.765115
     14          6           0        0.007549    1.224481    0.520801
     15          6           0        0.929133    0.377679    1.040585
     16          6           0        0.528803   -1.062201    1.412179
     17          1           0       -0.502112   -1.083290    1.697958
     18          1           0        0.678190   -1.702965    0.568375
     19          1           0        1.132180   -1.400783    2.228389
     20          6           0        0.407879    2.664361    0.149207
     21          1           0       -0.195497    3.002944   -0.667003
     22          1           0        0.258493    3.305125    0.993011
     23          1           0        1.438794    2.685451   -0.136572
     24         16           0        3.174443    0.514213   -0.128094
     25          8           0        4.555853    0.969983    0.080960
     26          8           0        2.589211    1.231888   -1.269220
     27          6           0        3.170581   -1.234255   -0.461630
     28          9           0        3.708186   -1.893523    0.586628
     29          9           0        3.899034   -1.482392   -1.570812
     30          9           0        1.901594   -1.652933   -0.653671
     31          8           0        2.273320    0.821168    1.244005
 ---------------------------------------------------------------------
 Rotational constants (GHZ):           0.7035951           0.1256870           0.1159016
 General basis read from cards:  (5D, 7F)
 There are   608 symmetry adapted cartesian basis functions of A   symmetry.
 There are   544 symmetry adapted basis functions of A   symmetry.
   544 basis functions,   900 primitive gaussians,   608 cartesian basis functions
    83 alpha electrons       83 beta electrons
       nuclear repulsion energy      1967.2826261538 Hartrees.
 NAtoms=   31 NActive=   31 NUniq=   31 SFac= 1.00D+00 NAtFMM=   60 NAOKFM=F Big=F
 Integral buffers will be    131072 words long.
 Raffenetti 2 integral format.
 Two-electron integral symmetry is turned on.
 One-electron integrals computed using PRISM.
 NBasis=   544 RedAO= T EigKep=  9.18D-05  NBF=   544
 NBsUse=   544 1.00D-06 EigRej= -1.00D+00 NBFU=   544
 ExpMin= 5.11D-02 ExpMax= 6.07D+04 ExpMxC= 2.07D+03 IAcc=3 IRadAn=         5 AccDes= 0.00D+00
 Harris functional with IExCor= 1009 and IRadAn=       5 diagonalized for initial guess.
 HarFok:  IExCor= 1009 AccDes= 0.00D+00 IRadAn=         5 IDoV= 1 UseB2=F ITyADJ=14
 ICtDFT=  3500011 ScaDFX=  1.000000  1.000000  1.000000  1.000000
 FoFCou: FMM=F IPFlag=           0 FMFlag=      100000 FMFlg1=           0
         NFxFlg=           0 DoJE=T BraDBF=F KetDBF=T FulRan=T
         wScrn=  0.000000 ICntrl=       500 IOpCl=  0 I1Cent=   200000004 NGrid=           0
         NMat0=    1 NMatS0=      1 NMatT0=    0 NMatD0=    1 NMtDS0=    0 NMtDT0=    0
 Petite list used in FoFCou.
 Requested convergence on RMS density matrix=1.00D-08 within 128 cycles.
 Requested convergence on MAX density matrix=1.00D-06.
 Requested convergence on             energy=1.00D-06.
 No special actions if energy rises.
 Integral accuracy reduced to 1.0D-05 until final iterations.
 Initial convergence to 1.0D-05 achieved.  Increase integral accuracy.
 SCF Done:  E(RM062X) =  -1553.05012547     A.U. after   16 cycles
            NFock= 16  Conv=0.36D-08     -V/T= 2.0051

 **********************************************************************

            Population analysis using the SCF Density.

 **********************************************************************

 Orbital symmetries:
       Occupied  (A) (A) (A) (A) (A) (A) (A) (A) (A) (A) (A) (A)
                 (A) (A) (A) (A) (A) (A) (A) (A) (A) (A) (A) (A)
                 (A) (A) (A) (A) (A) (A) (A) (A) (A) (A) (A) (A)
                 (A) (A) (A) (A) (A) (A) (A) (A) (A) (A) (A) (A)
                 (A) (A) (A) (A) (A) (A) (A) (A) (A) (A) (A) (A)
                 (A) (A) (A) (A) (A) (A) (A) (A) (A) (A) (A) (A)
                 (A) (A) (A) (A) (A) (A) (A) (A) (A) (A) (A)
       Virtual   (A) (A) (A) (A) (A) (A) (A) (A) (A) (A) (A) (A)
                 (A) (A) (A) (A) (A) (A) (A) (A) (A) (A) (A) (A)
                 (A) (A) (A) (A) (A) (A) (A) (A) (A) (A) (A) (A)
                 (A) (A) (A) (A) (A) (A) (A) (A) (A) (A) (A) (A)
                 (A) (A) (A) (A) (A) (A) (A) (A) (A) (A) (A) (A)
                 (A) (A) (A) (A) (A) (A) (A) (A) (A) (A) (A) (A)
                 (A) (A) (A) (A) (A) (A) (A) (A) (A) (A) (A) (A)
                 (A) (A) (A) (A) (A) (A) (A) (A) (A) (A) (A) (A)
                 (A) (A) (A) (A) (A) (A) (A) (A) (A) (A) (A) (A)
                 (A) (A) (A) (A) (A) (A) (A) (A) (A) (A) (A) (A)
                 (A) (A) (A) (A) (A) (A) (A) (A) (A) (A) (A) (A)
                 (A) (A) (A) (A) (A) (A) (A) (A) (A) (A) (A) (A)
                 (A) (A) (A) (A) (A) (A) (A) (A) (A) (A) (A) (A)
                 (A) (A) (A) (A) (A) (A) (A) (A) (A) (A) (A) (A)
                 (A) (A) (A) (A) (A) (A) (A) (A) (A) (A) (A) (A)
                 (A) (A) (A) (A) (A) (A) (A) (A) (A) (A) (A) (A)
                 (A) (A) (A) (A) (A) (A) (A) (A) (A) (A) (A) (A)
                 (A) (A) (A) (A) (A) (A) (A) (A) (A) (A) (A) (A)
                 (A) (A) (A) (A) (A) (A) (A) (A) (A) (A) (A) (A)
                 (A) (A) (A) (A) (A) (A) (A) (A) (A) (A) (A) (A)
                 (A) (A) (A) (A) (A) (A) (A) (A) (A) (A) (A) (A)
                 (A) (A) (A) (A) (A) (A) (A) (A) (A) (A) (A) (A)
                 (A) (A) (A) (A) (A) (A) (A) (A) (A) (A) (A) (A)
                 (A) (A) (A) (A) (A) (A) (A) (A) (A) (A) (A) (A)
                 (A) (A) (A) (A) (A) (A) (A) (A) (A) (A) (A) (A)
                 (A) (A) (A) (A) (A) (A) (A) (A) (A) (A) (A) (A)
                 (A) (A) (A) (A) (A) (A) (A) (A) (A) (A) (A) (A)
                 (A) (A) (A) (A) (A) (A) (A) (A) (A) (A) (A) (A)
                 (A) (A) (A) (A) (A) (A) (A) (A) (A) (A) (A) (A)
                 (A) (A) (A) (A) (A) (A) (A) (A) (A) (A) (A) (A)
                 (A) (A) (A) (A) (A) (A) (A) (A) (A) (A) (A) (A)
                 (A) (A) (A) (A) (A) (A) (A) (A) (A) (A) (A) (A)
                 (A) (A) (A) (A) (A) (A) (A) (A) (A) (A) (A) (A)
                 (A) (A) (A) (A) (A) (A) (A) (A) (A) (A) (A) (A)
                 (A) (A) (A) (A) (A) (A) (A) (A) (A) (A) (A) (A)
                 (A) (A) (A) (A) (A) (A) (A) (A) (A) (A) (A) (A)
                 (A) (A) (A) (A) (A) (A) (A) (A) (A) (A) (A) (A)
                 (A) (A) (A) (A) (A) (A) (A) (A) (A) (A) (A) (A)
                 (A) (A) (A) (A) (A)
 The electronic state is 1-A.
 Alpha  occ. eigenvalues --  -90.17609 -25.35439 -25.35004 -25.34884 -19.75318
 Alpha  occ. eigenvalues --  -19.66948 -19.66769 -19.66500 -19.66495 -15.00690
 Alpha  occ. eigenvalues --  -10.90374 -10.66415 -10.64144 -10.61824 -10.61397
 Alpha  occ. eigenvalues --  -10.60584 -10.60414 -10.59996 -10.58159 -10.57515
 Alpha  occ. eigenvalues --  -10.56783  -8.50282  -6.42506  -6.42352  -6.42234
 Alpha  occ. eigenvalues --   -1.52836  -1.44695  -1.43886  -1.39663  -1.30246
 Alpha  occ. eigenvalues --   -1.21522  -1.19370  -1.15214  -1.01142  -0.96299
 Alpha  occ. eigenvalues --   -0.93193  -0.90730  -0.89516  -0.86082  -0.82702
 Alpha  occ. eigenvalues --   -0.80667  -0.79103  -0.76442  -0.75994  -0.74660
 Alpha  occ. eigenvalues --   -0.72911  -0.69606  -0.67661  -0.65339  -0.64655
 Alpha  occ. eigenvalues --   -0.64625  -0.64337  -0.63056  -0.62283  -0.61327
 Alpha  occ. eigenvalues --   -0.60731  -0.60277  -0.59938  -0.58698  -0.58415
 Alpha  occ. eigenvalues --   -0.57266  -0.56182  -0.54820  -0.54116  -0.52408
 Alpha  occ. eigenvalues --   -0.52078  -0.50615  -0.48230  -0.47930  -0.47653
 Alpha  occ. eigenvalues --   -0.47420  -0.45868  -0.44861  -0.43545  -0.43176
 Alpha  occ. eigenvalues --   -0.41199  -0.40936  -0.39119  -0.38904  -0.38398
 Alpha  occ. eigenvalues --   -0.37822  -0.34776  -0.31946
 Alpha virt. eigenvalues --   -0.07376  -0.02261  -0.02053  -0.00446   0.02870
 Alpha virt. eigenvalues --    0.04830   0.05169   0.05377   0.07200   0.07653
 Alpha virt. eigenvalues --    0.08242   0.08765   0.09761   0.10323   0.11108
 Alpha virt. eigenvalues --    0.11401   0.11883   0.13055   0.13406   0.14737
 Alpha virt. eigenvalues --    0.15385   0.16240   0.16864   0.17789   0.19114
 Alpha virt. eigenvalues --    0.19620   0.20112   0.20564   0.21741   0.22217
 Alpha virt. eigenvalues --    0.22477   0.23168   0.23690   0.25043   0.25756
 Alpha virt. eigenvalues --    0.26670   0.27642   0.27991   0.28990   0.29992
 Alpha virt. eigenvalues --    0.31303   0.31795   0.33021   0.33866   0.34975
 Alpha virt. eigenvalues --    0.36070   0.36301   0.37276   0.38379   0.39165
 Alpha virt. eigenvalues --    0.39462   0.40025   0.40213   0.40676   0.41281
 Alpha virt. eigenvalues --    0.41888   0.42209   0.42988   0.43769   0.44380
 Alpha virt. eigenvalues --    0.44733   0.45377   0.45712   0.46674   0.47148
 Alpha virt. eigenvalues --    0.47818   0.47910   0.48252   0.48400   0.49320
 Alpha virt. eigenvalues --    0.49941   0.51037   0.51311   0.52053   0.52612
 Alpha virt. eigenvalues --    0.53542   0.54284   0.54739   0.54849   0.55736
 Alpha virt. eigenvalues --    0.56739   0.57025   0.58856   0.59490   0.60167
 Alpha virt. eigenvalues --    0.60451   0.60757   0.60992   0.61324   0.62277
 Alpha virt. eigenvalues --    0.62445   0.63816   0.63968   0.64516   0.65324
 Alpha virt. eigenvalues --    0.66565   0.67713   0.68111   0.68955   0.69129
 Alpha virt. eigenvalues --    0.69952   0.70933   0.71101   0.71688   0.72319
 Alpha virt. eigenvalues --    0.72615   0.72874   0.73772   0.73931   0.74354
 Alpha virt. eigenvalues --    0.74597   0.74973   0.75547   0.76259   0.77326
 Alpha virt. eigenvalues --    0.78487   0.79195   0.79959   0.80508   0.81308
 Alpha virt. eigenvalues --    0.82035   0.84662   0.85387   0.85835   0.86302
 Alpha virt. eigenvalues --    0.87621   0.88002   0.89687   0.90256   0.91465
 Alpha virt. eigenvalues --    0.92015   0.93912   0.94830   0.95131   0.97695
 Alpha virt. eigenvalues --    0.98276   0.98485   0.98751   1.00108   1.01140
 Alpha virt. eigenvalues --    1.04477   1.06005   1.06374   1.07989   1.09739
 Alpha virt. eigenvalues --    1.12133   1.12726   1.13756   1.14265   1.16634
 Alpha virt. eigenvalues --    1.17544   1.18577   1.20544   1.22453   1.23527
 Alpha virt. eigenvalues --    1.24815   1.26017   1.27300   1.28045   1.29586
 Alpha virt. eigenvalues --    1.30689   1.30769   1.31612   1.32925   1.34521
 Alpha virt. eigenvalues --    1.34848   1.36439   1.36566   1.37498   1.40081
 Alpha virt. eigenvalues --    1.40403   1.41355   1.44565   1.46435   1.49970
 Alpha virt. eigenvalues --    1.51698   1.52072   1.54144   1.54889   1.56653
 Alpha virt. eigenvalues --    1.58795   1.60464   1.61357   1.61433   1.61736
 Alpha virt. eigenvalues --    1.62717   1.63891   1.65559   1.66931   1.69135
 Alpha virt. eigenvalues --    1.69966   1.71030   1.71423   1.72339   1.74310
 Alpha virt. eigenvalues --    1.74831   1.75766   1.76168   1.77531   1.77965
 Alpha virt. eigenvalues --    1.78233   1.78830   1.80293   1.81074   1.81963
 Alpha virt. eigenvalues --    1.83595   1.83895   1.85045   1.85109   1.86620
 Alpha virt. eigenvalues --    1.87584   1.87840   1.89268   1.90045   1.90981
 Alpha virt. eigenvalues --    1.91617   1.92874   1.93415   1.94409   1.95106
 Alpha virt. eigenvalues --    1.96733   1.97610   1.99315   1.99700   2.00148
 Alpha virt. eigenvalues --    2.01493   2.02475   2.04006   2.04537   2.05706
 Alpha virt. eigenvalues --    2.06604   2.08315   2.08459   2.10025   2.10543
 Alpha virt. eigenvalues --    2.10920   2.11436   2.11971   2.13699   2.14581
 Alpha virt. eigenvalues --    2.15907   2.16080   2.17836   2.19756   2.20123
 Alpha virt. eigenvalues --    2.22107   2.23020   2.23371   2.26490   2.27233
 Alpha virt. eigenvalues --    2.27890   2.28590   2.29997   2.31694   2.32206
 Alpha virt. eigenvalues --    2.32792   2.34030   2.34584   2.35133   2.37460
 Alpha virt. eigenvalues --    2.38107   2.39238   2.39353   2.41398   2.41991
 Alpha virt. eigenvalues --    2.42471   2.43012   2.45331   2.46673   2.47704
 Alpha virt. eigenvalues --    2.48943   2.49614   2.52123   2.54021   2.54182
 Alpha virt. eigenvalues --    2.55428   2.56505   2.60147   2.61225   2.62306
 Alpha virt. eigenvalues --    2.64085   2.64148   2.66162   2.67245   2.69627
 Alpha virt. eigenvalues --    2.71078   2.75076   2.76963   2.77822   2.78768
 Alpha virt. eigenvalues --    2.80227   2.81640   2.82031   2.85374   2.87937
 Alpha virt. eigenvalues --    2.88546   2.89970   2.91387   2.92564   2.93857
 Alpha virt. eigenvalues --    2.95002   2.97189   2.98443   3.00526   3.01214
 Alpha virt. eigenvalues --    3.01985   3.02943   3.04915   3.07338   3.10422
 Alpha virt. eigenvalues --    3.10799   3.12552   3.13268   3.16646   3.17495
 Alpha virt. eigenvalues --    3.19726   3.26043   3.28823   3.30775   3.34066
 Alpha virt. eigenvalues --    3.34314   3.41519   3.44306   3.45321   3.46408
 Alpha virt. eigenvalues --    3.48992   3.50284   3.51503   3.61029   3.61925
 Alpha virt. eigenvalues --    3.66678   3.69511   3.74795   3.87545   3.93397
 Alpha virt. eigenvalues --    3.93666   3.97063   4.05350   4.06147   4.11738
 Alpha virt. eigenvalues --    4.17072   4.19051   4.26548   4.27667   4.36525
 Alpha virt. eigenvalues --    4.61368   4.64669   4.70997   4.72144   4.86302
 Alpha virt. eigenvalues --    5.04846   5.07319   5.09002   5.12256   5.12752
 Alpha virt. eigenvalues --    5.12939   5.13322   5.14199   5.14489   5.15020
 Alpha virt. eigenvalues --    5.16896   5.16977   5.17109   5.17467   5.18199
 Alpha virt. eigenvalues --    5.23300   5.23929   5.25138   5.27568   5.29763
 Alpha virt. eigenvalues --    5.34292   5.36403   5.38083   5.44082   5.51163
 Alpha virt. eigenvalues --    5.54377   5.54845   5.55611   5.61544   5.68205
 Alpha virt. eigenvalues --    5.70304   6.08660   6.23825   6.28200   6.30155
 Alpha virt. eigenvalues --    6.32051   6.35532   6.39577   6.39712   6.41506
 Alpha virt. eigenvalues --    6.43342   6.46420   6.46596   6.50465   6.51571
 Alpha virt. eigenvalues --    6.58758   6.60270   6.65382   6.70438   6.70773
 Alpha virt. eigenvalues --    6.72861   6.76813   6.77167   6.77645   6.78028
 Alpha virt. eigenvalues --    6.78722   6.79173   6.79367   6.80641   6.80704
 Alpha virt. eigenvalues --    6.81029   6.81688   6.81890   6.82269   6.82800
 Alpha virt. eigenvalues --    6.83044   6.84501   6.85389   6.85831   6.87244
 Alpha virt. eigenvalues --    6.87246   6.87810   6.98902   7.01626   7.02864
 Alpha virt. eigenvalues --    7.03368   7.11642   7.12044   7.17486   7.22620
 Alpha virt. eigenvalues --    7.26893   7.42037   7.54217   8.18579   8.21159
 Alpha virt. eigenvalues --    8.21244   8.23289   8.23678   8.25882   8.33914
 Alpha virt. eigenvalues --    8.37246   8.38314   8.50822   8.51200   8.55243
 Alpha virt. eigenvalues --    8.69614   8.70047   8.72433   9.16259   9.33832
 Alpha virt. eigenvalues --    9.49926  21.56776  32.62217  43.59888  43.73123
 Alpha virt. eigenvalues --   43.82837  44.52375  44.53843  57.05508  57.09678
 Alpha virt. eigenvalues --   57.23676
          Condensed to atoms (all electrons):
               1          2          3          4          5          6
     1  C    5.124256   0.291701   0.010188  -0.137639   0.109097   0.186532
     2  C    0.291701   5.919882   0.283772   0.096499  -0.190313   0.097203
     3  C    0.010188   0.283772   5.079849   0.241750   0.114561  -0.141898
     4  C   -0.137639   0.096499   0.241750   5.214772   0.245065   0.044654
     5  C    0.109097  -0.190313   0.114561   0.245065   5.255921   0.246052
     6  C    0.186532   0.097203  -0.141898   0.044654   0.246052   5.490627
     7  H    0.467417  -0.026918   0.013869  -0.002591   0.016069  -0.096423
     8  H    0.013428  -0.022932   0.456883  -0.084265   0.015393  -0.002506
     9  H   -0.001498   0.016970  -0.059999   0.456283  -0.069649   0.013593
    10  H   -0.063084   0.018084  -0.001898   0.013632  -0.072220   0.491873
    11  N   -0.057715  -0.333666  -0.056495   0.029551   0.014277   0.034423
    12  O   -0.012252  -0.100195   0.006891   0.000102  -0.001763   0.002439
    13  O    0.006941  -0.099379  -0.012207   0.001969  -0.001919   0.000137
    14  C    0.009540   0.000203   0.011389  -0.083691   0.314971  -0.058068
    15  C    0.002409  -0.000158  -0.000230   0.015286  -0.026074  -0.040484
    16  C    0.005740  -0.000739  -0.000124  -0.001678  -0.011364  -0.155678
    17  H    0.003964  -0.000664  -0.000285   0.000563   0.014602  -0.113873
    18  H    0.001431  -0.000066   0.000030  -0.000218  -0.001509   0.000235
    19  H   -0.000498   0.000020  -0.000000   0.000082   0.001140   0.006642
    20  C   -0.000158  -0.000007   0.001042  -0.008579  -0.055100   0.008042
    21  H    0.000028  -0.000080   0.001771   0.005439  -0.021274  -0.000673
    22  H    0.000008   0.000004  -0.000031   0.001767  -0.001363  -0.000355
    23  H    0.000002   0.000003  -0.000036   0.000254   0.007217  -0.000006
    24  S   -0.000006   0.000000  -0.000001   0.000026  -0.000108  -0.000006
    25  O   -0.000000  -0.000000  -0.000000  -0.000000  -0.000001  -0.000000
    26  O    0.000001  -0.000000   0.000000  -0.000027  -0.000294  -0.000003
    27  C    0.000000  -0.000000   0.000000  -0.000003  -0.000014   0.000078
    28  F   -0.000000  -0.000000  -0.000000   0.000000   0.000001  -0.000004
    29  F   -0.000000  -0.000000   0.000000   0.000000  -0.000000   0.000000
    30  F   -0.000005  -0.000000  -0.000000  -0.000002   0.000102  -0.000096
    31  O    0.000018  -0.000000   0.000001  -0.000141   0.007447  -0.000780
               7          8          9         10         11         12
     1  C    0.467417   0.013428  -0.001498  -0.063084  -0.057715  -0.012252
     2  C   -0.026918  -0.022932   0.016970   0.018084  -0.333666  -0.100195
     3  C    0.013869   0.456883  -0.059999  -0.001898  -0.056495   0.006891
     4  C   -0.002591  -0.084265   0.456283   0.013632   0.029551   0.000102
     5  C    0.016069   0.015393  -0.069649  -0.072220   0.014277  -0.001763
     6  C   -0.096423  -0.002506   0.013593   0.491873   0.034423   0.002439
     7  H    0.621555   0.000004   0.000014  -0.014766  -0.033732   0.007838
     8  H    0.000004   0.610855  -0.011862   0.000022  -0.037163  -0.002243
     9  H    0.000014  -0.011862   0.656648  -0.000084  -0.001681   0.000037
    10  H   -0.014766   0.000022  -0.000084   0.759355  -0.002406   0.000793
    11  N   -0.033732  -0.037163  -0.001681  -0.002406   6.461622   0.044296
    12  O    0.007838  -0.002243   0.000037   0.000793   0.044296   8.873396
    13  O   -0.002445   0.008937   0.000719   0.000097   0.044454  -0.199429
    14  C   -0.000272  -0.000228  -0.022227  -0.026695   0.000341  -0.000042
    15  C    0.000060   0.000004   0.000885   0.008546  -0.000041   0.000006
    16  C    0.000483  -0.000001   0.000007  -0.093214   0.000199  -0.000065
    17  H    0.001068  -0.000003   0.000022   0.007285   0.000280  -0.000048
    18  H    0.000012   0.000000  -0.000004   0.024526  -0.000013   0.000011
    19  H   -0.000019   0.000000  -0.000001  -0.001122  -0.000001   0.000001
    20  C    0.000002  -0.000021   0.006244  -0.000164  -0.000003   0.000000
    21  H    0.000000   0.000026   0.000059   0.000016  -0.000003   0.000001
    22  H    0.000000  -0.000001   0.000681  -0.000014  -0.000001  -0.000000
    23  H   -0.000000  -0.000000   0.000004   0.000024  -0.000000  -0.000000
    24  S    0.000000  -0.000000   0.000002  -0.000148  -0.000000   0.000000
    25  O    0.000000  -0.000000   0.000000  -0.000001  -0.000000   0.000000
    26  O    0.000000   0.000000  -0.000002  -0.000014  -0.000000   0.000000
    27  C   -0.000000   0.000000  -0.000000   0.000112  -0.000000  -0.000000
    28  F    0.000000  -0.000000  -0.000000  -0.000004   0.000000   0.000000
    29  F    0.000000   0.000000   0.000000  -0.000001  -0.000000   0.000000
    30  F    0.000001   0.000000  -0.000000  -0.001076   0.000000  -0.000000
    31  O    0.000000  -0.000000  -0.000005   0.000208  -0.000000   0.000000
              13         14         15         16         17         18
     1  C    0.006941   0.009540   0.002409   0.005740   0.003964   0.001431
     2  C   -0.099379   0.000203  -0.000158  -0.000739  -0.000664  -0.000066
     3  C   -0.012207   0.011389  -0.000230  -0.000124  -0.000285   0.000030
     4  C    0.001969  -0.083691   0.015286  -0.001678   0.000563  -0.000218
     5  C   -0.001919   0.314971  -0.026074  -0.011364   0.014602  -0.001509
     6  C    0.000137  -0.058068  -0.040484  -0.155678  -0.113873   0.000235
     7  H   -0.002445  -0.000272   0.000060   0.000483   0.001068   0.000012
     8  H    0.008937  -0.000228   0.000004  -0.000001  -0.000003   0.000000
     9  H    0.000719  -0.022227   0.000885   0.000007   0.000022  -0.000004
    10  H    0.000097  -0.026695   0.008546  -0.093214   0.007285   0.024526
    11  N    0.044454   0.000341  -0.000041   0.000199   0.000280  -0.000013
    12  O   -0.199429  -0.000042   0.000006  -0.000065  -0.000048   0.000011
    13  O    8.871203  -0.000038   0.000003  -0.000010  -0.000032   0.000000
    14  C   -0.000038   5.136824   0.533760  -0.076136  -0.023390  -0.004370
    15  C    0.000003   0.533760   5.225045   0.436147   0.017766  -0.022980
    16  C   -0.000010  -0.076136   0.436147   4.676968   0.405513   0.414809
    17  H   -0.000032  -0.023390   0.017766   0.405513   0.675535  -0.039153
    18  H    0.000000  -0.004370  -0.022980   0.414809  -0.039153   0.591658
    19  H    0.000000   0.009209  -0.012616   0.349479   0.000519  -0.015301
    20  C    0.000004   0.412971  -0.075113   0.007081  -0.000236  -0.000223
    21  H   -0.000003  -0.000717   0.008113  -0.000253  -0.000026   0.000050
    22  H    0.000002  -0.011762  -0.005039  -0.000230   0.000055  -0.000031
    23  H    0.000000   0.002029  -0.027336   0.000088  -0.000029   0.000042
    24  S    0.000000  -0.003627  -0.044206  -0.009460   0.000295   0.000996
    25  O    0.000000   0.000070   0.003159  -0.000055   0.000002  -0.000004
    26  O    0.000000   0.003754  -0.003196  -0.000424  -0.000008   0.000335
    27  C    0.000000   0.001128   0.012082   0.010072  -0.000417   0.004292
    28  F   -0.000000  -0.000114  -0.001529  -0.001116   0.000038  -0.000643
    29  F    0.000000  -0.000006  -0.000095  -0.000088   0.000003   0.000001
    30  F   -0.000000   0.000082  -0.003741  -0.038908   0.002154  -0.036815
    31  O   -0.000000  -0.074604   0.122525  -0.059105   0.004369   0.001852
              19         20         21         22         23         24
     1  C   -0.000498  -0.000158   0.000028   0.000008   0.000002  -0.000006
     2  C    0.000020  -0.000007  -0.000080   0.000004   0.000003   0.000000
     3  C   -0.000000   0.001042   0.001771  -0.000031  -0.000036  -0.000001
     4  C    0.000082  -0.008579   0.005439   0.001767   0.000254   0.000026
     5  C    0.001140  -0.055100  -0.021274  -0.001363   0.007217  -0.000108
     6  C    0.006642   0.008042  -0.000673  -0.000355  -0.000006  -0.000006
     7  H   -0.000019   0.000002   0.000000   0.000000  -0.000000   0.000000
     8  H    0.000000  -0.000021   0.000026  -0.000001  -0.000000  -0.000000
     9  H   -0.000001   0.006244   0.000059   0.000681   0.000004   0.000002
    10  H   -0.001122  -0.000164   0.000016  -0.000014   0.000024  -0.000148
    11  N   -0.000001  -0.000003  -0.000003  -0.000001  -0.000000  -0.000000
    12  O    0.000001   0.000000   0.000001  -0.000000  -0.000000   0.000000
    13  O    0.000000   0.000004  -0.000003   0.000002   0.000000   0.000000
    14  C    0.009209   0.412971  -0.000717  -0.011762   0.002029  -0.003627
    15  C   -0.012616  -0.075113   0.008113  -0.005039  -0.027336  -0.044206
    16  C    0.349479   0.007081  -0.000253  -0.000230   0.000088  -0.009460
    17  H    0.000519  -0.000236  -0.000026   0.000055  -0.000029   0.000295
    18  H   -0.015301  -0.000223   0.000050  -0.000031   0.000042   0.000996
    19  H    0.620606  -0.000255   0.000001   0.000034  -0.000006  -0.001706
    20  C   -0.000255   4.462503   0.379818   0.387512   0.401569  -0.002760
    21  H    0.000001   0.379818   0.611561  -0.020892  -0.014533   0.000024
    22  H    0.000034   0.387512  -0.020892   0.596479  -0.009730  -0.000104
    23  H   -0.000006   0.401569  -0.014533  -0.009730   0.560081  -0.002984
    24  S   -0.001706  -0.002760   0.000024  -0.000104  -0.002984  13.835940
    25  O    0.000026  -0.000094   0.000001   0.000016  -0.000517   0.573725
    26  O    0.000042  -0.015652   0.000519   0.000704  -0.002780   0.516957
    27  C    0.003040  -0.000045  -0.000009   0.000005   0.000218   0.282833
    28  F   -0.000308   0.000003   0.000000  -0.000000  -0.000008  -0.054137
    29  F    0.000014   0.000000   0.000000  -0.000000  -0.000007  -0.052882
    30  F   -0.000613   0.000016   0.000001  -0.000002  -0.000015  -0.045556
    31  O   -0.005579   0.001241   0.000409   0.001066   0.009163   0.249363
              25         26         27         28         29         30
     1  C   -0.000000   0.000001   0.000000  -0.000000  -0.000000  -0.000005
     2  C   -0.000000  -0.000000  -0.000000  -0.000000  -0.000000  -0.000000
     3  C   -0.000000   0.000000   0.000000  -0.000000   0.000000  -0.000000
     4  C   -0.000000  -0.000027  -0.000003   0.000000   0.000000  -0.000002
     5  C   -0.000001  -0.000294  -0.000014   0.000001  -0.000000   0.000102
     6  C   -0.000000  -0.000003   0.000078  -0.000004   0.000000  -0.000096
     7  H    0.000000   0.000000  -0.000000   0.000000   0.000000   0.000001
     8  H   -0.000000   0.000000   0.000000  -0.000000   0.000000   0.000000
     9  H    0.000000  -0.000002  -0.000000  -0.000000   0.000000  -0.000000
    10  H   -0.000001  -0.000014   0.000112  -0.000004  -0.000001  -0.001076
    11  N   -0.000000  -0.000000  -0.000000   0.000000  -0.000000   0.000000
    12  O    0.000000   0.000000  -0.000000   0.000000   0.000000  -0.000000
    13  O    0.000000   0.000000   0.000000  -0.000000   0.000000  -0.000000
    14  C    0.000070   0.003754   0.001128  -0.000114  -0.000006   0.000082
    15  C    0.003159  -0.003196   0.012082  -0.001529  -0.000095  -0.003741
    16  C   -0.000055  -0.000424   0.010072  -0.001116  -0.000088  -0.038908
    17  H    0.000002  -0.000008  -0.000417   0.000038   0.000003   0.002154
    18  H   -0.000004   0.000335   0.004292  -0.000643   0.000001  -0.036815
    19  H    0.000026   0.000042   0.003040  -0.000308   0.000014  -0.000613
    20  C   -0.000094  -0.015652  -0.000045   0.000003   0.000000   0.000016
    21  H    0.000001   0.000519  -0.000009   0.000000   0.000000   0.000001
    22  H    0.000016   0.000704   0.000005  -0.000000  -0.000000  -0.000002
    23  H   -0.000517  -0.002780   0.000218  -0.000008  -0.000007  -0.000015
    24  S    0.573725   0.516957   0.282833  -0.054137  -0.052882  -0.045556
    25  O    7.971883  -0.073045  -0.029609   0.000375   0.000237   0.001528
    26  O   -0.073045   8.069526  -0.023649   0.001179  -0.000112  -0.000079
    27  C   -0.029609  -0.023649   4.275582   0.263120   0.292098   0.220413
    28  F    0.000375   0.001179   0.263120   9.116574  -0.065726  -0.062449
    29  F    0.000237  -0.000112   0.292098  -0.065726   9.080352  -0.062196
    30  F    0.001528  -0.000079   0.220413  -0.062449  -0.062196   9.236437
    31  O   -0.031915  -0.041359  -0.018858   0.001877   0.000661   0.000735
              31
     1  C    0.000018
     2  C   -0.000000
     3  C    0.000001
     4  C   -0.000141
     5  C    0.007447
     6  C   -0.000780
     7  H    0.000000
     8  H   -0.000000
     9  H   -0.000005
    10  H    0.000208
    11  N   -0.000000
    12  O    0.000000
    13  O   -0.000000
    14  C   -0.074604
    15  C    0.122525
    16  C   -0.059105
    17  H    0.004369
    18  H    0.001852
    19  H   -0.005579
    20  C    0.001241
    21  H    0.000409
    22  H    0.001066
    23  H    0.009163
    24  S    0.249363
    25  O   -0.031915
    26  O   -0.041359
    27  C   -0.018858
    28  F    0.001877
    29  F    0.000661
    30  F    0.000735
    31  O    8.168691
 Mulliken charges:
               1
     1  C    0.040156
     2  C    0.050775
     3  C    0.051207
     4  C   -0.048858
     5  C    0.091050
     6  C   -0.011676
     7  H    0.048776
     8  H    0.055673
     9  H    0.014845
    10  H   -0.047663
    11  N    0.893479
    12  O   -0.619774
    13  O   -0.619004
    14  C   -0.050283
    15  C   -0.122957
    16  C    0.142063
    17  H    0.044131
    18  H    0.081051
    19  H    0.047171
    20  C    0.090365
    21  H    0.050626
    22  H    0.061225
    23  H    0.077293
    24  S    0.757529
    25  O   -0.415782
    26  O   -0.432374
    27  C    0.707533
    28  F   -0.197130
    29  F   -0.192254
    30  F   -0.209914
    31  O   -0.337281
 Sum of Mulliken charges =  -0.00000
 Mulliken charges with hydrogens summed into heavy atoms:
               1
     1  C    0.088932
     2  C    0.050775
     3  C    0.106880
     4  C   -0.034013
     5  C    0.091050
     6  C   -0.059339
    11  N    0.893479
    12  O   -0.619774
    13  O   -0.619004
    14  C   -0.050283
    15  C   -0.122957
    16  C    0.314417
    20  C    0.279510
    24  S    0.757529
    25  O   -0.415782
    26  O   -0.432374
    27  C    0.707533
    28  F   -0.197130
    29  F   -0.192254
    30  F   -0.209914
    31  O   -0.337281
 Electronic spatial extent (au):  <R**2>=           8547.9977
 Charge=             -0.0000 electrons
 Dipole moment (field-independent basis, Debye):
    X=              1.5228    Y=             -0.5452    Z=              1.8710  Tot=              2.4733
 Quadrupole moment (field-independent basis, Debye-Ang):
   XX=           -179.2715   YY=           -120.2526   ZZ=           -128.2159
   XY=            -16.9271   XZ=             -1.8637   YZ=             -1.4260
 Traceless Quadrupole moment (field-independent basis, Debye-Ang):
   XX=            -36.6915   YY=             22.3274   ZZ=             14.3641
   XY=            -16.9271   XZ=             -1.8637   YZ=             -1.4260
 Octapole moment (field-independent basis, Debye-Ang**2):
  XXX=            267.3573  YYY=            -12.4591  ZZZ=            -12.1612  XYY=             20.5522
  XXY=              6.3781  XXZ=             15.1057  XZZ=             16.5588  YZZ=            -17.4459
  YYZ=             -4.0993  XYZ=              9.0478
 Hexadecapole moment (field-independent basis, Debye-Ang**3):
 XXXX=         -10863.5033 YYYY=          -1284.8534 ZZZZ=           -536.9217 XXXY=           -461.6755
 XXXZ=           -208.1499 YYYX=           -100.4928 YYYZ=              5.5821 ZZZX=             -9.5312
 ZZZY=              9.8808 XXYY=          -1719.3333 XXZZ=          -1523.2909 YYZZ=           -309.1880
 XXYZ=              4.7133 YYXZ=              6.9208 ZZXY=            -18.3183
 N-N= 1.967282626154D+03 E-N=-7.587888113369D+03  KE= 1.545178213047D+03
 Calling FoFJK, ICntrl=      2127 FMM=F ISym2X=0 I1Cent= 0 IOpClX= 0 NMat=1 NMatS=1 NMatT=0.
 ***** Axes restored to original set *****
 -------------------------------------------------------------------
 Center     Atomic                   Forces (Hartrees/Bohr)
 Number     Number              X              Y              Z
 -------------------------------------------------------------------
      1        6           0.013264652   -0.001145052    0.014620033
      2        6           0.015697283   -0.000498006   -0.011086595
      3        6           0.001084866    0.000149272   -0.014487079
      4        6          -0.025429944   -0.000590977   -0.005724196
      5        6           0.033272938   -0.002307568   -0.023746303
      6        6          -0.042763130    0.011996952    0.068277562
      7        1          -0.014085475    0.000283631   -0.005453114
      8        1          -0.002080872   -0.000014274    0.014692319
      9        1           0.009709364   -0.000649514    0.008739311
     10        1          -0.065605745    0.054303550    0.076359898
     11        7          -0.008957966    0.000263948    0.006127896
     12        8          -0.011790560   -0.000053496   -0.037077012
     13        8           0.025974499   -0.000058890    0.028641449
     14        6           0.004710139    0.001292233    0.008565133
     15        6          -0.033925285   -0.007977107    0.018083933
     16        6           0.070612080   -0.019909312   -0.038823002
     17        1           0.056343273   -0.063973162   -0.075224396
     18        1          -0.018457926   -0.001658011    0.001947927
     19        1           0.005699788   -0.006428399   -0.022146589
     20        6          -0.035054432    0.000516426   -0.016831986
     21        1           0.001958273    0.009560445    0.015360474
     22        1           0.005833632   -0.020028945    0.005549876
     23        1           0.011984441    0.005442086   -0.004362690
     24       16           0.139976096   -0.005014158    0.068603703
     25        8          -0.068383511   -0.015533823    0.003473492
     26        8          -0.039585750   -0.020463436   -0.047093889
     27        6          -0.034875286    0.022555088   -0.034094557
     28        9           0.000710896    0.013024119    0.023430424
     29        9          -0.007926923   -0.033982871    0.007874885
     30        9           0.030246472    0.029333400   -0.019386331
     31        8          -0.018155886    0.051565849   -0.014810575
 -------------------------------------------------------------------
 Cartesian Forces:  Max     0.139976096 RMS     0.032022067

 GradGradGradGradGradGradGradGradGradGradGradGradGradGradGradGradGradGrad
 Berny optimization.
 FormGI is forming the generalized inverse of G from B-inverse, IUseBI=4.
 Internal  Forces:  Max     0.520944590 RMS     0.083193964
 Search for a local minimum.
 Step number   1 out of a maximum of  155
 All quantities printed in internal units (Hartrees-Bohrs-Radians)
 Mixed Optimization -- RFO/linear search
 Second derivative matrix not updated -- first step.
 ITU=  0
     Eigenvalues ---    0.00237   0.00237   0.00237   0.00635   0.00766
     Eigenvalues ---    0.00766   0.00935   0.01228   0.01295   0.01498
     Eigenvalues ---    0.01680   0.01693   0.02070   0.02070   0.02070
     Eigenvalues ---    0.02070   0.02070   0.02070   0.02070   0.02681
     Eigenvalues ---    0.07243   0.07243   0.07243   0.07243   0.08130
     Eigenvalues ---    0.08789   0.09110   0.09110   0.16000   0.16000
     Eigenvalues ---    0.16000   0.16000   0.16000   0.16000   0.16000
     Eigenvalues ---    0.16000   0.16000   0.16000   0.17310   0.21379
     Eigenvalues ---    0.22000   0.22981   0.24000   0.25000   0.25000
     Eigenvalues ---    0.25000   0.25000   0.25000   0.25000   0.25000
     Eigenvalues ---    0.25000   0.25000   0.25000   0.25000   0.25000
     Eigenvalues ---    0.25000   0.27758   0.28519   0.28519   0.28519
     Eigenvalues ---    0.35740   0.37230   0.37230   0.37230   0.37230
     Eigenvalues ---    0.37230   0.37230   0.37230   0.37230   0.37230
     Eigenvalues ---    0.37230   0.39757   0.40989   0.41268   0.41640
     Eigenvalues ---    0.45389   0.45389   0.45389   0.45389   0.53930
     Eigenvalues ---    0.55021   0.55021   0.55021   0.87694   0.87694
     Eigenvalues ---    1.06448   1.06448
 RFO step:  Lambda=-8.88893528D-01 EMin= 2.36824211D-03
 Linear search not attempted -- first point.
 Maximum step size (   0.300) exceeded in Quadratic search.
    -- Step size scaled by   0.355
 Iteration  1 RMS(Cart)=  0.24717617 RMS(Int)=  0.01158266
 Iteration  2 RMS(Cart)=  0.08750470 RMS(Int)=  0.00122741
 Iteration  3 RMS(Cart)=  0.00284703 RMS(Int)=  0.00011003
 Iteration  4 RMS(Cart)=  0.00000176 RMS(Int)=  0.00011003
 Iteration  5 RMS(Cart)=  0.00000000 RMS(Int)=  0.00011003
 Variable       Old X    -DE/DX   Delta X   Delta X   Delta X     New X
                                 (Linear)    (Quad)   (Total)
    R1        2.64826  -0.03863   0.00000  -0.01043  -0.01047   2.63779
    R2        2.64826  -0.00064   0.00000  -0.00008  -0.00009   2.64817
    R3        2.02201   0.01492   0.00000   0.00420   0.00420   2.02621
    R4        2.64826  -0.04412   0.00000  -0.01197  -0.01200   2.63626
    R5        2.77790  -0.00568   0.00000  -0.00162  -0.00162   2.77628
    R6        2.64826  -0.01792   0.00000  -0.00483  -0.00482   2.64344
    R7        2.02201   0.01469   0.00000   0.00414   0.00414   2.02615
    R8        2.64826   0.02845   0.00000   0.00774   0.00778   2.65604
    R9        2.02201   0.01278   0.00000   0.00360   0.00360   2.02561
   R10        2.64826   0.05035   0.00000   0.01362   0.01365   2.66191
   R11        2.91018   0.12204   0.00000   0.03693   0.03693   2.94711
   R12        2.02201  -0.07636   0.00000  -0.02151  -0.02151   2.00050
   R13        2.26162   0.02875   0.00000   0.00523   0.00523   2.26685
   R14        2.26162   0.02864   0.00000   0.00521   0.00521   2.26683
   R15        2.56096   0.12817   0.00000   0.03188   0.03188   2.59284
   R16        2.91018  -0.01337   0.00000  -0.00405  -0.00405   2.90613
   R17        2.91018  -0.03178   0.00000  -0.00962  -0.00962   2.90056
   R18        2.70231   0.00773   0.00000   0.00212   0.00212   2.70442
   R19        2.02201  -0.04976   0.00000  -0.01402  -0.01402   2.00799
   R20        2.02201   0.00344   0.00000   0.00097   0.00097   2.02298
   R21        2.02201   0.02306   0.00000   0.00650   0.00650   2.02850
   R22        2.02201   0.01770   0.00000   0.00499   0.00499   2.02699
   R23        2.02201   0.02149   0.00000   0.00605   0.00605   2.02806
   R24        2.02201   0.01328   0.00000   0.00374   0.00374   2.02575
   R25        2.77714  -0.06096   0.00000  -0.01226  -0.01226   2.76488
   R26        2.77714  -0.05553   0.00000  -0.01117  -0.01117   2.76597
   R27        3.36371   0.03483   0.00000   0.01061   0.01061   3.37432
   R28        3.15584  -0.00415   0.00000  -0.00115  -0.00115   3.15470
   R29        2.55113  -0.02670   0.00000  -0.00659  -0.00659   2.54454
   R30        2.55113  -0.03564   0.00000  -0.00880  -0.00880   2.54233
   R31        2.55113  -0.03589   0.00000  -0.00886  -0.00886   2.54227
    A1        2.09440   0.01716   0.00000   0.00519   0.00514   2.09954
    A2        2.09440  -0.01093   0.00000  -0.00339  -0.00337   2.09103
    A3        2.09440  -0.00624   0.00000  -0.00180  -0.00178   2.09262
    A4        2.09440  -0.00817   0.00000  -0.00330  -0.00338   2.09101
    A5        2.09440   0.00466   0.00000   0.00183   0.00187   2.09627
    A6        2.09440   0.00350   0.00000   0.00147   0.00151   2.09591
    A7        2.09440  -0.00271   0.00000  -0.00150  -0.00153   2.09287
    A8        2.09440  -0.00075   0.00000   0.00004   0.00005   2.09445
    A9        2.09440   0.00346   0.00000   0.00146   0.00148   2.09587
   A10        2.09440   0.06417   0.00000   0.02056   0.02060   2.11500
   A11        2.09440  -0.03483   0.00000  -0.01121  -0.01123   2.08316
   A12        2.09440  -0.02934   0.00000  -0.00935  -0.00937   2.08502
   A13        2.09440  -0.10125   0.00000  -0.03113  -0.03106   2.06334
   A14        2.09440  -0.24683   0.00000  -0.07722  -0.07727   2.01713
   A15        2.09440   0.34808   0.00000   0.10835   0.10830   2.20270
   A16        2.09440   0.03079   0.00000   0.01018   0.01020   2.10460
   A17        2.09440  -0.08172   0.00000  -0.02756  -0.02758   2.06681
   A18        2.09440   0.05093   0.00000   0.01738   0.01735   2.11174
   A19        2.09440  -0.01994   0.00000  -0.00622  -0.00622   2.08817
   A20        2.09440  -0.01940   0.00000  -0.00605  -0.00605   2.08834
   A21        2.09440   0.03934   0.00000   0.01227   0.01227   2.10667
   A22        2.09440   0.52094   0.00000   0.16250   0.16250   2.25690
   A23        2.09440  -0.27176   0.00000  -0.08477  -0.08477   2.00962
   A24        2.09440  -0.24918   0.00000  -0.07773  -0.07773   2.01666
   A25        2.09440   0.36858   0.00000   0.11498   0.11494   2.20934
   A26        2.09440  -0.19085   0.00000  -0.05954  -0.05956   2.03483
   A27        2.09440  -0.17772   0.00000  -0.05544  -0.05547   2.03893
   A28        1.91063   0.00443   0.00000   0.00147   0.00139   1.91202
   A29        1.91063   0.03822   0.00000   0.01351   0.01347   1.92410
   A30        1.91063  -0.02365   0.00000  -0.00854  -0.00856   1.90208
   A31        1.91063   0.02164   0.00000   0.00839   0.00829   1.91892
   A32        1.91063  -0.03596   0.00000  -0.01330  -0.01336   1.89727
   A33        1.91063  -0.00468   0.00000  -0.00152  -0.00150   1.90913
   A34        1.91063   0.00413   0.00000   0.00139   0.00139   1.91203
   A35        1.91063  -0.00059   0.00000  -0.00020  -0.00020   1.91043
   A36        1.91063   0.00495   0.00000   0.00168   0.00168   1.91231
   A37        1.91063  -0.00221   0.00000  -0.00076  -0.00076   1.90987
   A38        1.91063  -0.00445   0.00000  -0.00150  -0.00150   1.90913
   A39        1.91063  -0.00183   0.00000  -0.00061  -0.00061   1.91002
   A40        1.91063   0.04285   0.00000   0.01388   0.01380   1.92444
   A41        1.91063  -0.03945   0.00000  -0.01287  -0.01284   1.89779
   A42        1.91063  -0.03621   0.00000  -0.01184  -0.01175   1.89888
   A43        1.91063  -0.03913   0.00000  -0.01211  -0.01215   1.89848
   A44        1.91063  -0.00417   0.00000  -0.00054  -0.00049   1.91014
   A45        1.91063   0.07611   0.00000   0.02349   0.02355   1.93419
   A46        1.91063   0.00396   0.00000   0.00142   0.00141   1.91204
   A47        1.91063  -0.01541   0.00000  -0.00508  -0.00507   1.90556
   A48        1.91063   0.03067   0.00000   0.00965   0.00964   1.92028
   A49        1.91063   0.00165   0.00000   0.00035   0.00035   1.91098
   A50        1.91063  -0.00391   0.00000  -0.00068  -0.00071   1.90993
   A51        1.91063  -0.01696   0.00000  -0.00567  -0.00565   1.90498
   A52        1.91063   0.18449   0.00000   0.05755   0.05755   1.96818
    D1        0.00000   0.00514   0.00000   0.00202   0.00197   0.00197
    D2        3.14159   0.00026   0.00000   0.00010   0.00005  -3.14154
    D3        3.14159   0.01096   0.00000   0.00429   0.00431  -3.13728
    D4        0.00000   0.00607   0.00000   0.00237   0.00239   0.00239
    D5       -0.00000   0.00318   0.00000   0.00125   0.00136   0.00136
    D6        3.14159   0.02499   0.00000   0.00976   0.00983  -3.13176
    D7        3.14159  -0.00264   0.00000  -0.00102  -0.00098   3.14061
    D8       -0.00000   0.01918   0.00000   0.00749   0.00749   0.00749
    D9       -0.00000  -0.00334   0.00000  -0.00131  -0.00136  -0.00136
   D10        3.14159  -0.00477   0.00000  -0.00187  -0.00185   3.13974
   D11        3.14159   0.00155   0.00000   0.00061   0.00056  -3.14103
   D12        0.00000   0.00012   0.00000   0.00005   0.00007   0.00007
   D13       -0.00000   0.00250   0.00000   0.00098   0.00099   0.00099
   D14        3.14159   0.00238   0.00000   0.00094   0.00094  -3.14065
   D15        3.14159  -0.00239   0.00000  -0.00094  -0.00094   3.14065
   D16        0.00000  -0.00250   0.00000  -0.00098  -0.00099  -0.00099
   D17        0.00000  -0.00679   0.00000  -0.00266  -0.00261  -0.00261
   D18        3.14159  -0.00074   0.00000  -0.00029  -0.00018   3.14141
   D19        3.14159  -0.00536   0.00000  -0.00210  -0.00211   3.13948
   D20       -0.00000   0.00069   0.00000   0.00027   0.00032   0.00032
   D21       -0.00000   0.01511   0.00000   0.00592   0.00581   0.00581
   D22        3.14159  -0.00419   0.00000  -0.00166  -0.00125   3.14034
   D23        3.14159   0.00906   0.00000   0.00356   0.00338  -3.13821
   D24        0.00000  -0.01024   0.00000  -0.00403  -0.00369  -0.00369
   D25        0.00000  -0.01330   0.00000  -0.00522  -0.00517  -0.00517
   D26        3.14159  -0.03511   0.00000  -0.01373  -0.01386   3.12773
   D27        3.14159   0.00600   0.00000   0.00237   0.00273  -3.13886
   D28       -0.00000  -0.01581   0.00000  -0.00615  -0.00596  -0.00596
   D29        3.14159  -0.04961   0.00000  -0.01984  -0.01971   3.12189
   D30       -0.00000  -0.05573   0.00000  -0.02226  -0.02227  -0.02227
   D31        0.00000  -0.06891   0.00000  -0.02743  -0.02742  -0.02742
   D32        3.14159  -0.07504   0.00000  -0.02985  -0.02998   3.11161
   D33        0.00000  -0.10262   0.00000  -0.03995  -0.04014  -0.04014
   D34        3.14159  -0.06539   0.00000  -0.02528  -0.02525   3.11635
   D35        3.14159  -0.09650   0.00000  -0.03753  -0.03756   3.10403
   D36       -0.00000  -0.05927   0.00000  -0.02286  -0.02268  -0.02268
   D37       -0.52360   0.00195   0.00000   0.00076   0.00065  -0.52295
[...]
 001449,0.00004724,0.00006380,-0.00009998,0.00011399,-0.00010287,0.0000
 4169,0.00009126,0.00020387,-0.00036552,0.00000897,0.00005332,0.0005134
 5,-0.00052428,0.00005452,0.00002308,-0.00004777,-0.00001055,0.00000896
 ,-0.00001206,-0.00000187,-0.00004684,0.00001123,0.00045970,0.00012646,
 -0.00025513,0.00028871,0.00015434,-0.00031902,-0.00011624,-0.00006170,
 0.00011671,-0.00013856,-0.00016694,0.00023585,0.00073009,-0.00171467,-
 0.00174805,-0.00342626,-0.00177879,0.00348048,0.00086143,0.00083104,-0
 .00071710,0.00037764,-0.00023518,0.00019986,0.00061482,0.00049687,0.00
 071450,-0.00014622,-0.00043588,0.00003564,-0.00084497,0.00068611,-0.00
 024638,-0.00031867,0.00029813,-0.00027995,0.00023648,-0.00011205,-0.00
 007944,0.00007632,-0.00044153,0.00033472,-0.35887531,0.26267020,0.1434
 6413,-0.01488263,0.03060366,0.01671668,0.36045235,-0.00006163,0.000199
 70,-0.00025709,-0.00039222,-0.00005579,0.00024539,0.00022598,-0.000049
 52,0.00001274,-0.00065113,0.00003527,0.00040815,0.00118472,-0.00010401
 ,-0.00022354,-0.00032117,-0.00036391,0.00068406,-0.00005574,-0.0000650
 7,0.00005070,-0.00004352,-0.00000829,-0.00000633,0.00002502,0.00006488
 ,-0.00012305,-0.00017562,-0.00023591,-0.00000162,0.00075300,-0.0000377
 5,-0.00039692,-0.00041358,0.00015765,0.00010668,-0.00022377,-0.0000363
 3,0.00017692,-0.00216771,-0.00110279,0.00037686,0.01305785,0.00288369,
 -0.00826758,-0.00091900,-0.00057844,0.00130262,-0.00049989,-0.00000845
 ,-0.00025317,-0.00006905,-0.00027548,-0.00015957,0.00031153,0.00030028
 ,0.00017689,-0.00022894,-0.00014740,-0.00009924,0.00025363,0.00003888,
 0.00062286,0.00014138,0.00021383,0.00019009,-0.00028846,-0.00021820,-0
 .00032682,0.26679074,-0.34712265,-0.14462410,-0.00828731,0.01113232,-0
 .00422881,-0.29197140,0.37165192,-0.00006947,0.00003702,-0.00002416,0.
 00015238,-0.00000886,-0.00010691,-0.00008247,0.00005407,-0.00002663,0.
 00014306,0.00004177,-0.00015465,-0.00029218,0.00033720,0.00033761,0.00
 005066,-0.00019553,0.00027331,-0.00003327,-0.00000828,-0.00000611,0.00
 000069,-0.00001321,0.00000619,-0.00000937,-0.00005713,0.00001977,-0.00
 033550,-0.00008809,0.00000544,-0.00043790,-0.00007635,0.00028918,0.000
 23142,-0.00000696,-0.00008551,0.00016984,0.00010907,-0.00017524,-0.001
 36013,0.00095284,0.00097857,0.00098178,0.00213644,-0.00271775,-0.00073
 439,-0.00031722,0.00016124,0.00002301,-0.00010045,0.00007427,0.0003950
 3,-0.00032853,-0.00025962,0.00021990,0.00028045,-0.00000058,0.00051572
 ,-0.00003980,-0.00070971,0.00023703,0.00010057,0.00105515,0.00010571,0
 .00047331,0.00010292,0.00015963,-0.00040030,0.00001343,0.14733086,-0.1
 4961501,-0.18034161,-0.00881414,0.00271329,0.02338886,-0.15780812,0.16
 157683,0.14462021,-0.00013007,-0.00002630,-0.00001944,0.00004587,0.000
 04171,-0.00003213,-0.00001750,0.00003626,-0.00006665,0.00003033,-0.000
 08074,0.00001797,-0.00000648,0.00019404,0.00011890,-0.00008759,-0.0002
 2943,-0.00000943,-0.00002709,0.00000881,0.00007295,0.00000944,-0.00000
 616,0.00001940,0.00001107,0.00003384,0.00000955,0.00006921,0.00016699,
 0.00018614,-0.00020701,-0.00016710,0.00033549,0.00005437,0.00005125,-0
 .00013205,0.00010154,0.00015174,-0.00022876,-0.00185361,-0.00021293,0.
 00038932,0.00658864,0.00058474,0.00261776,0.00141763,-0.00040316,-0.00
 002859,-0.00057910,0.00052607,-0.00088805,-0.00230327,0.00054398,0.001
 23063,0.00003284,-0.00135228,0.00037340,0.00015016,-0.00022806,-0.0002
 3540,-0.00016039,-0.00003022,-0.00014209,-0.00007598,-0.00003761,-0.00
 002914,-0.00011988,-0.00012436,-0.00007266,-0.02318952,0.00267573,-0.0
 1793839,-0.01902404,-0.00163110,-0.02184790,-0.00829060,0.01010793,0.0
 1888769,0.58623295,-0.00011604,-0.00007184,0.00001434,0.00000257,0.000
 06173,-0.00004459,0.00002902,-0.00002169,-0.00005457,0.00000112,-0.000
 05272,-0.00002230,-0.00006642,0.00074913,0.00014691,-0.00002812,-0.000
 10870,-0.00001393,-0.00000619,0.00002803,0.00000819,-0.00000206,0.0000
 0833,0.00001845,0.00001608,0.00001065,0.00005217,-0.00004455,0.0001162
 7,0.00006587,-0.00020919,0.00009076,0.00008190,0.00013396,-0.00007346,
 -0.00003645,0.00007066,-0.00003491,-0.00003512,-0.00159156,-0.00068071
 ,0.00035733,0.00475127,-0.00308681,0.00407632,0.00026304,0.00063602,0.
 00019078,-0.00008680,-0.00007330,-0.00034395,-0.00055205,0.00018760,0.
 00018599,-0.00038446,-0.00076936,0.00006607,-0.00012968,-0.00034193,-0
 .00013036,0.00003517,0.00000756,0.00001176,-0.00001163,0.00008308,0.00
 004715,0.00002034,0.00005769,-0.00003207,0.00247745,-0.02074778,-0.005
 67952,-0.00116608,0.00238933,-0.00199112,0.00806415,-0.00863505,-0.019
 22078,-0.00257913,0.59552251,0.00001910,0.00001678,-0.00024005,-0.0006
 2465,-0.00003782,0.00039323,0.00031492,-0.00014917,0.00000435,-0.00071
 566,-0.00006386,0.00043748,0.00117951,0.00044557,-0.00039481,-0.000627
 37,-0.00007731,0.00029709,0.00001850,-0.00001928,0.00004305,-0.0000263
 2,0.00002322,-0.00000941,0.00005994,0.00012969,-0.00008131,0.00030661,
 -0.00000684,0.00004749,0.00140451,0.00018336,-0.00086535,-0.00072889,0
 .00010773,0.00024831,-0.00048771,-0.00026882,0.00048627,-0.00239796,-0
 .00078258,0.00053718,0.01008037,0.00104574,-0.00316117,-0.00051320,-0.
 00011615,0.00089584,-0.00057212,-0.00006618,-0.00042357,0.00002672,0.0
 0034382,0.00046570,0.00013357,-0.00031376,0.00026842,-0.00008920,-0.00
 022662,0.00016328,0.00016895,0.00008017,-0.00032518,-0.00006404,-0.000
 16440,0.00030896,-0.00028322,0.00037350,-0.00045891,-0.01278773,0.0064
 0285,-0.20112039,0.02222737,-0.00001086,0.01817046,-0.01221930,0.01082
 728,0.01741293,-0.00848347,0.00108616,0.54505246,0.00002782,-0.0000121
 0,-0.00001275,-0.00007890,-0.00000652,0.00004710,0.00004275,-0.0000321
 0,0.00001844,-0.00008831,0.00000922,0.00004064,0.00011759,0.00003184,-
 0.00006564,-0.00005293,0.00006181,0.00000066,0.00001167,0.00000143,-0.
 00001478,-0.00000593,0.00000606,-0.00000418,0.00000520,0.00000648,-0.0
 0000388,0.00003940,-0.00002089,-0.00002894,0.00018723,0.00008383,-0.00
 018146,-0.00007852,-0.00001602,0.00006063,-0.00007552,-0.00008125,0.00
 011721,0.00011565,0.00000279,-0.00012303,-0.00018607,-0.00013984,-0.00
 049725,-0.00029855,0.00020592,0.00009585,0.00007481,-0.00013019,0.0001
 2997,0.00043886,-0.00007351,-0.00019848,-0.00000944,0.00017158,-0.0000
 8838,-0.00007027,0.00004889,0.00013163,0.00004937,-0.00000443,-0.00005
 196,0.00001834,-0.00003189,0.00003521,-0.00001443,0.00005532,-0.000008
 77,-0.00968559,0.01242200,-0.00107253,0.00658424,-0.00230026,0.0010607
 2,0.00100166,-0.00003870,0.00422474,-0.15378836,0.10184094,0.06872694,
 0.21179466,-0.00000168,0.00003397,0.00000426,0.00007269,-0.00000959,-0
 .00003614,-0.00004377,0.00003256,-0.00000358,0.00007149,0.00001350,-0.
 00003238,-0.00006925,-0.00015546,0.00006338,0.00006445,-0.00004072,0.0
 0003424,-0.00001113,-0.00000940,0.00000658,0.00000378,-0.00000829,-0.0
 0000142,-0.00000976,-0.00001441,-0.00000949,-0.00005935,-0.00002102,-0
 .00000109,-0.00013656,-0.00008790,0.00013815,0.00005310,0.00002717,-0.
 00004235,0.00005734,0.00007749,-0.00009228,0.00009767,0.00004963,0.000
 09833,-0.00058849,0.00072248,-0.00007931,0.00018856,-0.00032288,-0.000
 14564,-0.00001170,0.00011703,0.00001241,-0.00017883,-0.00000243,0.0000
 3767,0.00017226,0.00008590,-0.00002405,0.00004974,0.00003714,-0.000128
 41,-0.00003099,0.00001821,0.00013448,0.00001407,0.00004227,-0.00004020
 ,0.00002697,-0.00010615,0.00003469,0.01440923,-0.01685820,0.00017657,-
 0.00425936,0.00289679,-0.00080436,0.00032742,0.00006121,-0.00627246,0.
 10030577,-0.19982460,-0.08597081,-0.16038417,0.27845877,-0.00002089,0.
 00001880,0.00005075,0.00019133,0.00000705,-0.00011934,-0.00009995,0.00
 005741,-0.00001592,0.00021884,0.00001742,-0.00013042,-0.00033160,-0.00
 003017,0.00015916,0.00018039,-0.00003760,-0.00001738,-0.00001551,-0.00
 000116,-0.00000363,0.00000809,-0.00001072,0.00000341,-0.00001852,-0.00
 003932,0.00001923,-0.00013615,-0.00000973,-0.00000940,-0.00044613,-0.0
 0009611,0.00030739,0.00022290,-0.00001174,-0.00009182,0.00016371,0.000
 11478,-0.00018324,0.00042082,0.00006159,0.00003330,-0.00241202,-0.0007
 5729,0.00103583,0.00019216,-0.00009467,-0.00022989,0.00011513,0.000067
 06,0.00007533,-0.00009530,-0.00010064,-0.00009952,0.00000814,0.0001057
 8,-0.00005208,0.00003733,-0.00002351,-0.00017447,-0.00004718,0.0000193
 6,0.00020728,0.00002614,0.00009728,-0.00007920,0.00010732,-0.00014380,
 0.00011589,0.02435312,-0.03209412,0.00003172,-0.00566962,0.00287501,-0
 .00229513,0.00355889,-0.00379743,-0.01374750,0.06962888,-0.08910491,-0
 .14198699,-0.08704741,0.10592188,0.12290084,0.00002246,0.00000731,-0.0
 0002376,-0.00006404,-0.00001261,0.00004122,0.00002914,-0.00001689,0.00
 001034,-0.00006624,0.00001249,0.00003357,0.00011189,0.00004174,-0.0000
 3615,-0.00004310,0.00002658,0.00004680,0.00000432,-0.00000570,-0.00000
 913,-0.00000433,0.00000156,-0.00000542,0.00000224,0.00000217,-0.000010
 95,0.00000825,-0.00003395,-0.00002599,0.00015952,0.00003860,-0.0001318
 3,-0.00007407,0.00000526,0.00004476,-0.00005882,-0.00004471,0.00008014
 ,0.00000616,-0.00005387,0.00000419,0.00001331,-0.00009898,-0.00037142,
 -0.00028184,0.00000423,0.00010963,0.00006826,-0.00008175,0.00014266,0.
 00036116,-0.00011826,-0.00020934,0.00001144,0.00025007,-0.00006465,-0.
 00007058,0.00003905,0.00007513,0.00004026,0.00001342,0.00002703,0.0000
 2992,-0.00000066,0.00002740,0.00000274,-0.00001845,-0.00001235,-0.0003
 5163,-0.00584494,-0.00026178,0.00416289,0.00153238,0.00165336,0.000985
 25,-0.00001855,-0.00044401,-0.09132480,-0.05955560,0.03030095,0.014002
 87,0.02376065,-0.00651681,0.11091827,0.00003096,0.00003594,-0.00011289
 ,-0.00021798,-0.00003805,0.00014777,0.00009065,-0.00003795,0.00000621,
 -0.00023318,0.00001091,0.00013481,0.00043012,0.00020654,-0.00011067,-0
 .00021757,-0.00003301,0.00021266,-0.00000087,-0.00002497,0.00000774,-0
 .00001074,0.00000161,-0.00001138,0.00001305,0.00002759,-0.00004413,0.0
 0006072,-0.00007142,-0.00001225,0.00052493,0.00002868,-0.00031730,-0.0
 0027491,0.00006631,0.00009867,-0.00017633,-0.00007236,0.00017373,-0.00
 077512,-0.00020391,0.00017237,0.00291139,0.00016377,-0.00075983,-0.000
 41556,-0.00020330,0.00026377,-0.00004368,-0.00006414,0.00010711,0.0003
 5213,-0.00015099,-0.00016632,0.00013157,0.00032471,-0.00005282,-0.0000
 7639,-0.00001235,0.00015167,0.00008004,0.00001447,0.00003142,0.0000643
 6,-0.00001016,0.00008075,-0.00006639,-0.00004755,-0.00010170,-0.008230
 80,-0.02278385,-0.00125210,0.00508738,0.00378998,0.00259390,-0.0023421
 8,0.00713351,0.00368096,-0.05924121,-0.26876986,0.10142080,0.01185270,
 -0.07885275,0.00552387,0.09676646,0.38598088,0.00000014,-0.00001816,0.
 00013909,0.00029783,0.00002562,-0.00018740,-0.00013955,0.00006187,0.00
 000688,0.00032628,0.00001180,-0.00018672,-0.00055617,-0.00043095,0.000
 13508,0.00030493,0.00007599,-0.00023941,-0.00000085,0.00001796,-0.0000
 1912,0.00001399,-0.00000728,0.00000694,-0.00002551,-0.00005035,0.00004
 107,-0.00010011,0.00002953,-0.00002062,-0.00065531,-0.00007343,0.00040
 217,0.00033850,-0.00006133,-0.00011776,0.00022223,0.00011437,-0.000223
 20,0.00148414,0.00057900,-0.00024333,-0.00554964,0.00015865,0.00022272
 ,0.00026984,0.00014858,-0.00039611,0.00019172,0.00003345,0.00008786,-0
 .00008038,-0.00004499,-0.00001151,-0.00008956,-0.00002739,-0.00004013,
 0.00009332,0.00010893,-0.00011090,-0.00010046,-0.00001145,0.00006296,-
 0.00004413,0.00002041,-0.00013034,0.00013202,-0.00002868,0.00016099,0.
 01091172,0.03322118,0.00148023,-0.00548967,-0.00342042,-0.00341281,0.0
 0137196,-0.00484056,-0.00289830,0.03178776,0.10602058,-0.13696500,-0.0
 0373161,-0.01128766,0.02017849,-0.04050260,-0.12296260,0.11514644,0.00
 007328,0.00001176,0.00001881,0.00003016,-0.00002500,-0.00001461,-0.000
 01972,-0.00000926,0.00004342,0.00004297,0.00006208,-0.00004940,-0.0000
 6822,-0.00008784,0.00000817,0.00009359,0.00013720,-0.00000215,0.000012
 05,-0.00000604,-0.00004584,-0.00000494,-0.00000033,-0.00001134,-0.0000
 1390,-0.00004165,-0.00000008,-0.00006565,-0.00010234,-0.00010856,-0.00
 000828,0.00007353,-0.00011286,0.00003522,-0.00003539,0.00005383,-0.000
 01244,-0.00005892,0.00008692,0.00102598,0.00019337,-0.00022511,-0.0042
 1168,-0.00005541,-0.00034411,-0.00134017,0.00030158,0.00021751,0.00052
 500,-0.00045392,0.00069736,0.00066868,-0.00105475,0.00011815,-0.000026
 23,0.00087679,-0.00036172,-0.00015363,0.00027282,0.00013549,0.00005008
 ,0.00001820,0.00017612,0.00013030,0.00003418,-0.00004042,0.00005642,-0
 .00019558,0.00015380,-0.03253165,-0.00799704,0.00686200,-0.00197630,-0
 .00018861,-0.00992289,0.00875343,-0.00205883,-0.00360073,-0.28772869,-
 0.03885109,-0.08073002,-0.07082898,0.02554837,0.00186702,-0.03873886,-
 0.04314572,0.00243587,0.41817281,0.00003444,0.00002529,-0.00002391,-0.
 00001627,-0.00002245,0.00002226,-0.00000332,0.00000198,0.00001301,-0.0
 0001514,0.00002565,0.00000185,0.00004912,-0.00005983,-0.00003053,-0.00
 000850,0.00001847,0.00005833,0.00000021,-0.00000957,-0.00000452,-0.000
 00194,-0.00000123,-0.00000532,-0.00000350,-0.00000528,-0.00001314,-0.0
 0000811,-0.00004958,-0.00002155,0.00007948,-0.00000513,-0.00005446,-0.
 00004102,0.00001535,0.00002039,-0.00002702,-0.00000612,0.00003006,0.00
 030926,0.00009115,-0.00007044,-0.00103574,0.00025090,-0.00093579,-0.00
 067974,-0.00026165,0.00024104,0.00014571,-0.00006069,0.00033213,0.0000
 9974,-0.00049889,0.00009902,0.00006238,0.00056081,-0.00013390,-0.00000
 989,0.00006215,0.00003962,0.00001268,0.00000910,0.00006036,0.00003867,
 0.00000731,-0.00000343,-0.00000249,-0.00005409,0.00002488,-0.00599324,
 -0.00067510,0.00112371,-0.00073411,0.00056865,-0.00172396,-0.00025527,
 0.00137936,0.00022922,-0.03775536,-0.07954462,-0.01453550,0.03838389,0
 .00713831,0.00446005,-0.05673464,-0.02445017,-0.00462539,0.06074240,0.
 09214400,-0.00000102,-0.00000489,0.00005663,0.00015373,0.00000704,-0.0
 0009981,-0.00007277,0.00003205,0.00000853,0.00016268,0.00002423,-0.000
 10617,-0.00026602,-0.00007166,0.00013723,0.00015923,0.00003201,-0.0000
 6442,-0.00000442,0.00000387,-0.00002012,0.00000306,-0.00000658,0.00000
 056,-0.00001709,-0.00004391,0.00002021,-0.00009383,-0.00000781,-0.0000
 2524,-0.00035901,-0.00002415,0.00018921,0.00019575,-0.00003638,-0.0000
 4983,0.00012248,0.00005201,-0.00010071,0.00052637,0.00016661,-0.000124
 34,-0.00254493,-0.00026778,0.00132687,0.00096459,-0.00006135,-0.000368
 22,0.00005593,0.00013406,0.00003683,0.00072384,0.00065516,-0.00114580,
 -0.00005877,0.00009746,-0.00007139,-0.00005274,0.00012814,-0.00004218,
 -0.00004843,0.00000865,0.00014379,0.00007394,0.00004915,-0.00008317,0.
 00005447,-0.00021541,0.00016520,-0.03575995,-0.00842773,0.00413290,-0.
 00725760,-0.00031930,-0.01191461,0.00459387,-0.00095412,-0.00278339,-0
 .08387644,-0.01543729,-0.11183275,0.01742202,0.00004425,0.01724631,0.0
 1476249,0.00475025,0.01759238,0.08554054,0.01577073,0.09056963,0.00007
 489,0.00014229,-0.00068483,-0.00115324,-0.00017805,0.00072411,0.000782
 40,-0.00059746,0.00036793,-0.00277742,0.00060177,0.00162021,0.00654732
 ,-0.00223969,0.00045402,-0.00113442,-0.00030359,0.00100702,-0.00003136
 ,-0.00008969,0.00005542,-0.00020508,0.00000450,-0.00001456,0.00007790,
 0.00001351,-0.00015961,0.00021324,-0.00031567,-0.00000267,0.00237463,0
 .00033685,-0.00157653,-0.00117435,0.00021681,0.00046049,-0.00079494,-0
 .00047016,0.00089323,-0.02146691,-0.00363519,0.02085092,-0.15992920,-0
 .00337672,0.06207200,-0.04014495,-0.01388268,0.02591318,-0.00571905,-0
 .00073575,-0.00644684,0.00176274,0.00121207,0.00090678,0.00232980,0.00
 068430,0.00124479,-0.00503132,0.00336301,-0.00412412,0.00209953,0.0002
 2967,0.00082721,0.00123467,-0.00030228,-0.00048357,0.00253440,-0.00080
 226,-0.00177143,-0.08573549,-0.02961563,0.02703080,-0.02023553,-0.0411
 8019,0.00610837,0.01191502,0.01603440,0.00019251,-0.00583005,-0.012325
 12,-0.01361712,0.00074970,0.00056147,0.00155685,0.00013798,-0.00292783
 ,0.00688330,0.00805937,0.00336730,0.00489803,0.31046974,-0.00024998,0.
 00003389,-0.00090601,-0.00118859,-0.00009208,0.00071897,0.00034281,-0.
 00008510,-0.00059645,-0.00000052,-0.00023914,0.00012572,0.00164142,0.0
 1135381,-0.00065368,-0.00219037,-0.00099458,0.00157074,-0.00008112,-0.
 00010052,0.00011116,0.00000958,0.00001351,-0.00003600,0.00013282,0.000
 11722,-0.00000044,-0.00006346,-0.00015609,0.00032266,0.00208457,0.0002
 5985,-0.00126048,-0.00101278,0.00023484,0.00035698,-0.00062204,-0.0003
 4358,0.00067920,-0.01071889,0.00445293,0.01118530,0.00074727,-0.052424
 73,-0.00860229,-0.01697057,-0.00127142,0.01015233,-0.00469305,0.001225
 86,-0.00249143,-0.00119557,0.00002843,-0.00072737,0.00150233,0.0010852
 6,0.00205884,0.00007613,-0.00630955,-0.00083999,-0.00068373,0.00012197
 ,0.00036086,0.00125930,0.00061347,0.00067893,0.00022217,-0.00089405,-0
 .00008303,-0.03733776,-0.21598215,0.02963704,-0.00554688,-0.00763759,0
 .00542307,-0.00466954,-0.03620743,0.00402592,-0.01132371,-0.01711135,-
 0.01967671,-0.00191284,0.00650137,0.00700558,0.00013758,-0.00195810,0.
 00726272,0.00609543,0.00340590,0.00392270,0.08621000,0.31235913,0.0002
 5890,-0.00014835,0.00048742,0.00095806,0.00002918,-0.00058103,-0.00060
 055,0.00082117,-0.00014158,0.00299972,-0.00023086,-0.00151596,-0.00615
 963,0.00130015,-0.00394486,0.00095529,0.00073561,-0.00056817,0.0000582
 8,0.00005415,-0.00011193,0.00018804,-0.00003006,-0.00004942,-0.0001427
 7,-0.00020387,0.00002261,-0.00016445,-0.00009831,-0.00013074,-0.001943
 15,-0.00023464,0.00115662,0.00101368,-0.00020050,-0.00032516,0.0006543
 0,0.00032531,-0.00063715,0.04704652,0.00621066,-0.03099907,0.05742041,
 -0.00612351,-0.09226098,-0.00557287,-0.00162355,0.00634320,-0.00100724
 ,-0.00055771,0.00023781,0.00136777,-0.00010893,0.00033626,-0.00010734,
 0.00068958,0.00110234,0.00130112,0.00241022,-0.00024898,-0.00041996,-0
 .00045630,-0.00027696,0.00081892,-0.00069642,-0.00099752,0.00109048,-0
 .00005065,-0.00381816,0.02384272,0.02610561,-0.07896328,0.00449546,0.0
 0602249,0.01571497,-0.00096113,-0.00819811,0.01529861,0.00835474,0.019
 71699,0.01263239,0.00101929,-0.00173524,-0.00312901,0.00126652,0.00634
 554,-0.01046067,-0.00284518,-0.00034482,-0.00279412,-0.13518593,-0.049
 72483,0.17862248\\-0.00000296,-0.00000132,0.00000212,-0.00000125,0.000
 00142,0.00000095,-0.00000257,0.00000431,0.00000324,0.00000102,0.000000
 06,-0.00000567,-0.00001216,-0.00000177,0.00002344,0.00000494,0.0000073
 6,-0.00000489,-0.00000193,-0.00000095,-0.00000171,-0.00000074,0.000002
 37,0.00000211,0.00000473,0.00000335,-0.00000046,-0.00000037,-0.0000047
 3,-0.00000460,-0.00000544,-0.00000108,-0.00000262,0.00000185,0.0000055
 2,-0.00000400,0.00000595,-0.00000071,0.00000100,0.00001053,-0.00000517
 ,-0.00001500,0.00001966,0.00000081,-0.00002222,-0.00000752,-0.00001154
 ,0.00000860,0.00000680,0.00000159,0.00000022,0.00000350,-0.00000071,0.
 00000090,0.00000199,-0.00000170,0.00000020,-0.00000876,0.00001818,0.00
 001353,-0.00000369,-0.00000275,-0.00000217,-0.00000127,-0.00000116,0.0
 0000189,0.00000341,-0.00000154,-0.00000418,0.00000908,-0.00000784,-0.0
 0000397,-0.00001216,-0.00001110,-0.00000007,-0.00000021,0.00000089,-0.
 00000635,0.00000371,-0.00000118,-0.00000170,-0.00000116,-0.00000050,-0
 .00000198,-0.00000060,0.00000067,-0.00000142,-0.00000010,-0.00000833,0
 .00000064,-0.00001426,0.00001757,0.00002416\\\@
 The archive entry for this job was punched.


 IF I AM NOT FOR MYSELF, WHO WILL BE?
 BUT IF I AM ONLY FOR MYSELF, WHAT AM I?
 THOUGH A SEEKER SINCE MY BIRTH,
 HERE IS ALL I'VE LEARNED ON EARTH,
 THIS IS THE GIST OF WHAT I KNOW:
 GIVE ADVICE AND BUY A FOE.

 PRESSED FOR RULES AND VERITIES,
 ALL I RECOLLECT ARE THESE:
 FEED A COLD TO STARVE A FEVER,
 ARGUE WITH NO TRUE-BELIEVER.
 THINK-TOO-LONG IS NEVER-ACT,
 SCRATCH A MYTH AND FIND A FACT.

 STITCH IN TIME SAVES TWENTY STITCHES,
 GIVE THE RICH TO PLEASE THEM, RICHES.
 GIVE TO LOVE YOU HEARTH AND HALL,
 BUT DO NOT GIVE ADVICE AT ALL.

                                  -- HILLEL
 Job cpu time:       0 days  7 hours  2 minutes 32.7 seconds.
 Elapsed time:       0 days  0 hours 26 minutes 32.9 seconds.
 File lengths (MBytes):  RWF=    881 Int=      0 D2E=      0 Chk=     25 Scr=      1
 Normal termination of Gaussian 16 at Fri Dec 31 14:08:01 2021.
