 Entering Gaussian System, Link 0=/software/g16/g16
 Input=Z-isomer.com
 Output=Z-isomer.log
 Initial command:
 /software/g16/l1.exe "/scratch/Gau-1076597.inp" -scrdir="/scratch/"
 Default CPUs for threads: 0-15
 Default is to use a total of  16 processors:
                               16 via shared-memory
                                1 via Linda
 Entering Link 1 = /software/g16/l1.exe PID=   1076598.
  
 Copyright (c) 1988-2019, Gaussian, Inc.  All Rights Reserved.
  
 This is part of the Gaussian(R) 16 program.  It is based on
 the Gaussian(R) 09 system (copyright 2009, Gaussian, Inc.),
 the Gaussian(R) 03 system (copyright 2003, Gaussian, Inc.),
 the Gaussian(R) 98 system (copyright 1998, Gaussian, Inc.),
 the Gaussian(R) 94 system (copyright 1995, Gaussian, Inc.),
 the Gaussian 92(TM) system (copyright 1992, Gaussian, Inc.),
 the Gaussian 90(TM) system (copyright 1990, Gaussian, Inc.),
 the Gaussian 88(TM) system (copyright 1988, Gaussian, Inc.),
 the Gaussian 86(TM) system (copyright 1986, Carnegie Mellon
 University), and the Gaussian 82(TM) system (copyright 1983,
 Carnegie Mellon University). Gaussian is a federally registered
 trademark of Gaussian, Inc.
  
 This software contains proprietary and confidential information,
 including trade secrets, belonging to Gaussian, Inc.
  
 This software is provided under written license and may be
 used, copied, transmitted, or stored only in accord with that
 written license.
  
 The following legend is applicable only to US Government
 contracts under FAR:
  
                    RESTRICTED RIGHTS LEGEND
  
 Use, reproduction and disclosure by the US Government is
 subject to restrictions as set forth in subparagraphs (a)
 and (c) of the Commercial Computer Software - Restricted
 Rights clause in FAR 52.227-19.
  
 Gaussian, Inc.
 340 Quinnipiac St., Bldg. 40, Wallingford CT 06492
  
  
 ---------------------------------------------------------------
 Warning -- This program may not be used in any manner that
 competes with the business of Gaussian, Inc. or will provide
 assistance to any competitor of Gaussian, Inc.  The licensee
 of this program is prohibited from giving any competitor of
 Gaussian, Inc. access to this program.  By using this program,
 the user acknowledges that Gaussian, Inc. is engaged in the
 business of creating and licensing software in the field of
 computational chemistry and represents and warrants to the
 licensee that it is not a competitor of Gaussian, Inc. and that
 it will not use this program in any manner prohibited above.
 ---------------------------------------------------------------
  

 Cite this work as:
 Gaussian 16, Revision C.01,
 M. J. Frisch, G. W. Trucks, H. B. Schlegel, G. E. Scuseria, 
 M. A. Robb, J. R. Cheeseman, G. Scalmani, V. Barone, 
 G. A. Petersson, H. Nakatsuji, X. Li, M. Caricato, A. V. Marenich, 
 J. Bloino, B. G. Janesko, R. Gomperts, B. Mennucci, H. P. Hratchian, 
 J. V. Ortiz, A. F. Izmaylov, J. L. Sonnenberg, D. Williams-Young, 
 F. Ding, F. Lipparini, F. Egidi, J. Goings, B. Peng, A. Petrone, 
 T. Henderson, D. Ranasinghe, V. G. Zakrzewski, J. Gao, N. Rega, 
 G. Zheng, W. Liang, M. Hada, M. Ehara, K. Toyota, R. Fukuda, 
 J. Hasegawa, M. Ishida, T. Nakajima, Y. Honda, O. Kitao, H. Nakai, 
 T. Vreven, K. Throssell, J. A. Montgomery, Jr., J. E. Peralta, 
 F. Ogliaro, M. J. Bearpark, J. J. Heyd, E. N. Brothers, K. N. Kudin, 
 V. N. Staroverov, T. A. Keith, R. Kobayashi, J. Normand, 
 K. Raghavachari, A. P. Rendell, J. C. Burant, S. S. Iyengar, 
 J. Tomasi, M. Cossi, J. M. Millam, M. Klene, C. Adamo, R. Cammi, 
 J. W. Ochterski, R. L. Martin, K. Morokuma, O. Farkas, 
 J. B. Foresman, and D. J. Fox, Gaussian, Inc., Wallingford CT, 2019.
 
 ******************************************
 Gaussian 16:  ES64L-G16RevC.01  3-Jul-2019
                31-Dec-2021 
 ******************************************
 SetSPE:  set environment variable "MP_BIND" = "yes"
 SetSPE:  set environment variable "MP_BLIST" = "0,1,2,3,4,5,6,7,8,9,10,11,12,13,14,15"
 ------------------------------------------------------
 #N M062X/gen OPT FREQ=NoRaman Integral(Grid=UltraFine)
 ------------------------------------------------------
 1/18=20,19=15,26=4,38=1/1,3;
 2/9=110,12=2,17=6,18=5,40=1/2;
 3/5=7,11=2,25=1,30=1,71=1,74=-55,75=-5/1,2,3;
 4//1;
 5/5=2,38=5/2;
 6/7=2,8=2,9=2,10=2,28=1/1;
 7//1,2,3,16;
 1/18=20,19=15,26=4/3(2);
 2/9=110/2;
 99//99;
 2/9=110/2;
 3/5=7,6=1,11=2,25=1,30=1,71=1,74=-55,75=-5,82=7/1,2,3;
 4/5=5,16=3,69=1/1;
 5/5=2,38=5/2;
 7//1,2,3,16;
 1/18=20,19=15,26=4/3(-5);
 2/9=110/2;
 6/7=2,8=2,9=2,10=2,19=2,28=1/1;
 99/9=1/99;
 ----------------------------------------------------------------------
 Z-isomer - CH: def2svp - O25 O26 O31 SF: def2tzvp - N: def2tzvpd - O12
  O13: def2tzvpd
 ----------------------------------------------------------------------
 Symbolic Z-matrix:
 Charge =  0 Multiplicity = 1
 C
 C                    1    B1
 C                    2    B2       1    A1
 C                    3    B3       2    A2       1    D1       0
 C                    4    B4       3    A3       2    D2       0
 C                    1    B5       2    A4       3    D3       0
 H                    1    B6       2    A5       3    D4       0
 H                    3    B7       2    A6       1    D5       0
 H                    4    B8       3    A7       2    D6       0
 H                    6    B9       1    A8       2    D7       0
 N                    2    B10      1    A9       6    D8       0
 O                    11   B11      2    A10      1    D9       0
 O                    11   B12      2    A11      1    D10      0
 C                    5    B13      4    A12      3    D11      0
 C                    14   B14      5    A13      4    D12      0
 C                    15   B15      14   A14      5    D13      0
 H                    16   B16      15   A15      14   D14      0
 H                    16   B17      15   A16      14   D15      0
 H                    16   B18      15   A17      14   D16      0
 C                    14   B19      5    A18      4    D17      0
 H                    20   B20      14   A19      5    D18      0
 H                    20   B21      14   A20      5    D19      0
 H                    20   B22      14   A21      5    D20      0
 S                    15   B23      14   A22      5    D21      0
 O                    24   B24      15   A23      14   D22      0
 O                    24   B25      15   A24      14   D23      0
 C                    24   B26      15   A25      14   D24      0
 F                    27   B27      24   A26      15   D25      0
 F                    27   B28      24   A27      15   D26      0
 F                    27   B29      24   A28      15   D27      0
 O                    24   B30      15   A29      14   D28      0
       Variables:
  B1                    1.4014                   
  B2                    1.4014                   
  B3                    1.4014                   
  B4                    1.4014                   
  B5                    1.4014                   
  B6                    1.07                     
  B7                    1.07                     
  B8                    1.07                     
  B9                    1.07                     
  B10                   1.47                     
  B11                   1.1968                   
  B12                   1.1968                   
  B13                   1.54                     
  B14                   1.3552                   
  B15                   1.54                     
  B16                   1.07                     
  B17                   1.07                     
  B18                   1.07                     
  B19                   1.54                     
  B20                   1.07                     
  B21                   1.07                     
  B22                   1.07                     
  B23                   2.53493                  
  B24                   1.4696                   
  B25                   1.4696                   
  B26                   1.78                     
  B27                   1.35                     
  B28                   1.35                     
  B29                   1.35                     
  B30                   1.67                     
  A1                  120.                       
  A2                  120.                       
  A3                  120.                       
  A4                  120.                       
  A5                  120.                       
  A6                  120.                       
  A7                  120.                       
  A8                  120.                       
  A9                  120.                       
  A10                 120.                       
  A11                 120.                       
  A12                 120.                       
  A13                 120.                       
  A14                 120.                       
  A15                 109.47122                  
  A16                 109.47122                  
  A17                 109.47122                  
  A18                 120.                       
  A19                 109.47122                  
  A20                 109.47122                  
  A21                 109.47122                  
  A22                 113.07018                  
  A23                 141.60215                  
  A24                  91.8085                   
  A25                  91.8085                   
  A26                 109.47122                  
  A27                 109.47122                  
  A28                 109.47122                  
  A29                  32.13093                  
  D1                    0.                       
  D2                    0.                       
  D3                    0.                       
  D4                 -180.                       
  D5                 -180.                       
  D6                  180.                       
  D7                  180.                       
  D8                  180.                       
  D9                    0.                       
  D10                 180.                       
  D11                -180.                       
  D12                -180.                       
  D13                 180.                       
  D14                 -30.                       
  D15                  90.                       
  D16                -150.                       
  D17                   0.                       
  D18                 -30.                       
  D19                  90.                       
  D20                -150.                       
  D21                 -42.46273                  
  D22                 109.72798                  
  D23                 -15.49601                  
  D24                -125.04803                  
  D25                 -87.44069                  
  D26                 152.55931                  
  D27                  32.55931                  
  D28                 109.72798                  
 
     9 tetrahedral angles replaced.

 GradGradGradGradGradGradGradGradGradGradGradGradGradGradGradGradGradGrad
 Berny optimization.
 Initialization pass.
                           ----------------------------
                           !    Initial Parameters    !
                           ! (Angstroms and Degrees)  !
 --------------------------                            --------------------------
 ! Name  Definition              Value          Derivative Info.                !
 --------------------------------------------------------------------------------
 ! R1    R(1,2)                  1.4014         estimate D2E/DX2                !
 ! R2    R(1,6)                  1.4014         estimate D2E/DX2                !
 ! R3    R(1,7)                  1.07           estimate D2E/DX2                !
 ! R4    R(2,3)                  1.4014         estimate D2E/DX2                !
 ! R5    R(2,11)                 1.47           estimate D2E/DX2                !
 ! R6    R(3,4)                  1.4014         estimate D2E/DX2                !
 ! R7    R(3,8)                  1.07           estimate D2E/DX2                !
 ! R8    R(4,5)                  1.4014         estimate D2E/DX2                !
 ! R9    R(4,9)                  1.07           estimate D2E/DX2                !
 ! R10   R(5,6)                  1.4014         estimate D2E/DX2                !
 ! R11   R(5,14)                 1.54           estimate D2E/DX2                !
 ! R12   R(6,10)                 1.07           estimate D2E/DX2                !
 ! R13   R(11,12)                1.1968         estimate D2E/DX2                !
 ! R14   R(11,13)                1.1968         estimate D2E/DX2                !
 ! R15   R(14,15)                1.3552         estimate D2E/DX2                !
 ! R16   R(14,20)                1.54           estimate D2E/DX2                !
 ! R17   R(15,16)                1.54           estimate D2E/DX2                !
 ! R18   R(15,31)                1.43           estimate D2E/DX2                !
 ! R19   R(16,17)                1.07           estimate D2E/DX2                !
 ! R20   R(16,18)                1.07           estimate D2E/DX2                !
 ! R21   R(16,19)                1.07           estimate D2E/DX2                !
 ! R22   R(20,21)                1.07           estimate D2E/DX2                !
 ! R23   R(20,22)                1.07           estimate D2E/DX2                !
 ! R24   R(20,23)                1.07           estimate D2E/DX2                !
 ! R25   R(24,25)                1.4696         estimate D2E/DX2                !
 ! R26   R(24,26)                1.4696         estimate D2E/DX2                !
 ! R27   R(24,27)                1.78           estimate D2E/DX2                !
 ! R28   R(24,31)                1.67           estimate D2E/DX2                !
 ! R29   R(27,28)                1.35           estimate D2E/DX2                !
 ! R30   R(27,29)                1.35           estimate D2E/DX2                !
 ! R31   R(27,30)                1.35           estimate D2E/DX2                !
 ! A1    A(2,1,6)              120.0            estimate D2E/DX2                !
 ! A2    A(2,1,7)              120.0            estimate D2E/DX2                !
 ! A3    A(6,1,7)              120.0            estimate D2E/DX2                !
 ! A4    A(1,2,3)              120.0            estimate D2E/DX2                !
 ! A5    A(1,2,11)             120.0            estimate D2E/DX2                !
 ! A6    A(3,2,11)             120.0            estimate D2E/DX2                !
 ! A7    A(2,3,4)              120.0            estimate D2E/DX2                !
 ! A8    A(2,3,8)              120.0            estimate D2E/DX2                !
 ! A9    A(4,3,8)              120.0            estimate D2E/DX2                !
 ! A10   A(3,4,5)              120.0            estimate D2E/DX2                !
 ! A11   A(3,4,9)              120.0            estimate D2E/DX2                !
 ! A12   A(5,4,9)              120.0            estimate D2E/DX2                !
 ! A13   A(4,5,6)              120.0            estimate D2E/DX2                !
 ! A14   A(4,5,14)             120.0            estimate D2E/DX2                !
 ! A15   A(6,5,14)             120.0            estimate D2E/DX2                !
 ! A16   A(1,6,5)              120.0            estimate D2E/DX2                !
 ! A17   A(1,6,10)             120.0            estimate D2E/DX2                !
 ! A18   A(5,6,10)             120.0            estimate D2E/DX2                !
 ! A19   A(2,11,12)            120.0            estimate D2E/DX2                !
 ! A20   A(2,11,13)            120.0            estimate D2E/DX2                !
 ! A21   A(12,11,13)           120.0            estimate D2E/DX2                !
 ! A22   A(5,14,15)            120.0            estimate D2E/DX2                !
 ! A23   A(5,14,20)            120.0            estimate D2E/DX2                !
 ! A24   A(15,14,20)           120.0            estimate D2E/DX2                !
 ! A25   A(14,15,16)           120.0            estimate D2E/DX2                !
 ! A26   A(14,15,31)           120.0            estimate D2E/DX2                !
 ! A27   A(16,15,31)           120.0            estimate D2E/DX2                !
 ! A28   A(15,16,17)           109.4712         estimate D2E/DX2                !
 ! A29   A(15,16,18)           109.4712         estimate D2E/DX2                !
 ! A30   A(15,16,19)           109.4712         estimate D2E/DX2                !
 ! A31   A(17,16,18)           109.4712         estimate D2E/DX2                !
 ! A32   A(17,16,19)           109.4712         estimate D2E/DX2                !
 ! A33   A(18,16,19)           109.4712         estimate D2E/DX2                !
 ! A34   A(14,20,21)           109.4712         estimate D2E/DX2                !
 ! A35   A(14,20,22)           109.4712         estimate D2E/DX2                !
 ! A36   A(14,20,23)           109.4712         estimate D2E/DX2                !
 ! A37   A(21,20,22)           109.4712         estimate D2E/DX2                !
 ! A38   A(21,20,23)           109.4712         estimate D2E/DX2                !
 ! A39   A(22,20,23)           109.4712         estimate D2E/DX2                !
 ! A40   A(25,24,26)           109.4712         estimate D2E/DX2                !
 ! A41   A(25,24,27)           109.4712         estimate D2E/DX2                !
 ! A42   A(25,24,31)           109.4712         estimate D2E/DX2                !
 ! A43   A(26,24,27)           109.4712         estimate D2E/DX2                !
 ! A44   A(26,24,31)           109.4712         estimate D2E/DX2                !
 ! A45   A(27,24,31)           109.4712         estimate D2E/DX2                !
 ! A46   A(24,27,28)           109.4712         estimate D2E/DX2                !
 ! A47   A(24,27,29)           109.4712         estimate D2E/DX2                !
 ! A48   A(24,27,30)           109.4712         estimate D2E/DX2                !
 ! A49   A(28,27,29)           109.4712         estimate D2E/DX2                !
 ! A50   A(28,27,30)           109.4712         estimate D2E/DX2                !
 ! A51   A(29,27,30)           109.4712         estimate D2E/DX2                !
 ! A52   A(15,31,24)           109.4712         estimate D2E/DX2                !
 ! D1    D(6,1,2,3)              0.0            estimate D2E/DX2                !
 ! D2    D(6,1,2,11)           180.0            estimate D2E/DX2                !
 ! D3    D(7,1,2,3)            180.0            estimate D2E/DX2                !
 ! D4    D(7,1,2,11)             0.0            estimate D2E/DX2                !
 ! D5    D(2,1,6,5)              0.0            estimate D2E/DX2                !
 ! D6    D(2,1,6,10)           180.0            estimate D2E/DX2                !
 ! D7    D(7,1,6,5)            180.0            estimate D2E/DX2                !
 ! D8    D(7,1,6,10)             0.0            estimate D2E/DX2                !
 ! D9    D(1,2,3,4)              0.0            estimate D2E/DX2                !
 ! D10   D(1,2,3,8)            180.0            estimate D2E/DX2                !
 ! D11   D(11,2,3,4)           180.0            estimate D2E/DX2                !
 ! D12   D(11,2,3,8)             0.0            estimate D2E/DX2                !
 ! D13   D(1,2,11,12)            0.0            estimate D2E/DX2                !
 ! D14   D(1,2,11,13)          180.0            estimate D2E/DX2                !
 ! D15   D(3,2,11,12)          180.0            estimate D2E/DX2                !
 ! D16   D(3,2,11,13)            0.0            estimate D2E/DX2                !
 ! D17   D(2,3,4,5)              0.0            estimate D2E/DX2                !
 ! D18   D(2,3,4,9)            180.0            estimate D2E/DX2                !
 ! D19   D(8,3,4,5)            180.0            estimate D2E/DX2                !
 ! D20   D(8,3,4,9)              0.0            estimate D2E/DX2                !
 ! D21   D(3,4,5,6)              0.0            estimate D2E/DX2                !
 ! D22   D(3,4,5,14)           180.0            estimate D2E/DX2                !
 ! D23   D(9,4,5,6)            180.0            estimate D2E/DX2                !
 ! D24   D(9,4,5,14)             0.0            estimate D2E/DX2                !
 ! D25   D(4,5,6,1)              0.0            estimate D2E/DX2                !
 ! D26   D(4,5,6,10)           180.0            estimate D2E/DX2                !
 ! D27   D(14,5,6,1)           180.0            estimate D2E/DX2                !
 ! D28   D(14,5,6,10)            0.0            estimate D2E/DX2                !
 ! D29   D(4,5,14,15)          180.0            estimate D2E/DX2                !
 ! D30   D(4,5,14,20)            0.0            estimate D2E/DX2                !
 ! D31   D(6,5,14,15)            0.0            estimate D2E/DX2                !
 ! D32   D(6,5,14,20)          180.0            estimate D2E/DX2                !
 ! D33   D(5,14,15,16)         180.0            estimate D2E/DX2                !
 ! D34   D(5,14,15,31)           0.0            estimate D2E/DX2                !
 ! D35   D(20,14,15,16)          0.0            estimate D2E/DX2                !
 ! D36   D(20,14,15,31)        180.0            estimate D2E/DX2                !
 ! D37   D(5,14,20,21)         -30.0            estimate D2E/DX2                !
 ! D38   D(5,14,20,22)          90.0            estimate D2E/DX2                !
 ! D39   D(5,14,20,23)        -150.0            estimate D2E/DX2                !
 ! D40   D(15,14,20,21)        150.0            estimate D2E/DX2                !
 ! D41   D(15,14,20,22)        -90.0            estimate D2E/DX2                !
 ! D42   D(15,14,20,23)         30.0            estimate D2E/DX2                !
 ! D43   D(14,15,16,17)        -30.0            estimate D2E/DX2                !
 ! D44   D(14,15,16,18)         90.0            estimate D2E/DX2                !
 ! D45   D(14,15,16,19)       -150.0            estimate D2E/DX2                !
 ! D46   D(31,15,16,17)        150.0            estimate D2E/DX2                !
 ! D47   D(31,15,16,18)        -90.0            estimate D2E/DX2                !
 ! D48   D(31,15,16,19)         30.0            estimate D2E/DX2                !
 ! D49   D(14,15,31,24)        -90.0            estimate D2E/DX2                !
 ! D50   D(16,15,31,24)         90.0            estimate D2E/DX2                !
 ! D51   D(25,24,27,28)         60.0            estimate D2E/DX2                !
 ! D52   D(25,24,27,29)        -60.0            estimate D2E/DX2                !
 ! D53   D(25,24,27,30)        180.0            estimate D2E/DX2                !
 ! D54   D(26,24,27,28)        180.0            estimate D2E/DX2                !
 ! D55   D(26,24,27,29)         60.0            estimate D2E/DX2                !
 ! D56   D(26,24,27,30)        -60.0            estimate D2E/DX2                !
 ! D57   D(31,24,27,28)        -60.0            estimate D2E/DX2                !
 ! D58   D(31,24,27,29)        180.0            estimate D2E/DX2                !
 ! D59   D(31,24,27,30)         60.0            estimate D2E/DX2                !
 ! D60   D(25,24,31,15)        180.0            estimate D2E/DX2                !
 ! D61   D(26,24,31,15)         60.0            estimate D2E/DX2                !
 ! D62   D(27,24,31,15)        -60.0            estimate D2E/DX2                !
 --------------------------------------------------------------------------------
 Trust Radius=3.00D-01 FncErr=1.00D-07 GrdErr=1.00D-06 EigMax=2.50D+02 EigMin=1.00D-04
 Number of steps in this run=    155 maximum allowed number of steps=    186.
 GradGradGradGradGradGradGradGradGradGradGradGradGradGradGradGradGradGrad

                          Input orientation:                          
 ---------------------------------------------------------------------
 Center     Atomic      Atomic             Coordinates (Angstroms)
 Number     Number       Type             X           Y           Z
 ---------------------------------------------------------------------
      1          6           0        0.000000    0.000000    0.000000
      2          6           0        0.000000    0.000000    1.401400
      3          6           0        1.213648    0.000000    2.102100
      4          6           0        2.427296    0.000000    1.401400
      5          6           0        2.427296    0.000000    0.000000
      6          6           0        1.213648    0.000000   -0.700700
      7          1           0       -0.926647    0.000000   -0.535000
      8          1           0        1.213648    0.000000    3.172100
      9          1           0        3.353943    0.000000    1.936400
     10          1           0        1.213648    0.000000   -1.770700
     11          7           0       -1.273057    0.000000    2.136400
     12          8           0       -2.309517    0.000000    1.538000
     13          8           0       -1.273057    0.000000    3.333200
     14          6           0        3.760975    0.000000   -0.770000
     15          6           0        3.760975    0.000000   -2.125200
     16          6           0        5.094654    0.000000   -2.895200
     17          1           0        5.840362    0.504403   -2.316929
     18          1           0        5.403537   -1.008806   -3.073533
     19          1           0        4.966711    0.504403   -3.830138
     20          6           0        5.094654    0.000000    0.000000
     21          1           0        4.966711    0.504403    0.934938
     22          1           0        5.403537   -1.008806    0.178333
     23          1           0        5.840362    0.504403   -0.578271
     24         16           0        2.040473   -1.574492   -3.118533
     25          8           0        0.767762   -1.574493   -3.853333
     26          8           0        1.864748   -2.267269   -1.834436
     27          6           0        3.280997   -2.413592   -4.080517
     28          9           0        3.442420   -1.777195   -5.260111
     29          9           0        2.891286   -3.686384   -4.305517
     30          9           0        4.450131   -2.413591   -3.405517
     31          8           0        2.522559   -0.000001   -2.840200
 ---------------------------------------------------------------------
                    Distance matrix (angstroms):
                    1          2          3          4          5
     1  C    0.000000
     2  C    1.401400   0.000000
     3  C    2.427296   1.401400   0.000000
     4  C    2.802800   2.427296   1.401400   0.000000
     5  C    2.427296   2.802800   2.427296   1.401400   0.000000
     6  C    1.401400   2.427296   2.802800   2.427296   1.401400
     7  H    1.070000   2.146700   3.396345   3.872800   3.396345
     8  H    3.396345   2.146700   1.070000   2.146700   3.396345
     9  H    3.872800   3.396345   2.146700   1.070000   2.146700
    10  H    2.146700   3.396345   3.872800   3.396345   2.146700
    11  N    2.486942   1.470000   2.486942   3.772644   4.272800
    12  O    2.774763   2.313553   3.568038   4.738782   4.980245
    13  O    3.568038   2.313553   2.774763   4.174262   4.980245
    14  C    3.838989   4.342800   3.838989   2.548270   1.540000
    15  C    4.319885   5.155758   4.935478   3.770359   2.509019
    16  C    5.859837   6.664554   6.327339   5.057230   3.936621
    17  H    6.303365   6.941918   6.417844   5.072417   4.155912
    18  H    6.297817   7.088083   6.734986   5.468156   4.395714
    19  H    6.292265   7.231295   7.037851   5.837126   4.623095
    20  C    5.094654   5.283883   4.413732   3.013092   2.667358
    21  H    5.079050   5.014003   3.962597   2.630711   2.752664
    22  H    5.499791   5.631322   4.719506   3.372179   3.147618
    23  H    5.890556   6.187354   5.370782   3.977756   3.498263
    24  S    4.045714   5.203110   5.515222   4.801922   3.514813
    25  O    4.232808   5.539017   6.176166   5.731082   4.481212
    26  O    3.461640   4.369030   4.589200   3.990940   2.970206
    27  C    5.765499   6.829478   6.951554   6.050260   4.817141
    28  F    6.532798   7.706128   7.894808   6.968833   5.644260
    29  F    6.362895   7.383621   7.580333   6.809817   5.687019
    30  F    6.101363   6.981084   6.828915   5.746628   4.638408
    31  O    3.798689   4.935025   5.112688   4.242670   2.841797
                    6          7          8          9         10
     6  C    0.000000
     7  H    2.146700   0.000000
     8  H    3.872800   4.280590   0.000000
     9  H    3.396345   4.942800   2.471400   0.000000
    10  H    1.070000   2.471400   4.942800   4.280590   0.000000
    11  N    3.772644   2.693767   2.693767   4.631321   4.631321
    12  O    4.174262   2.491918   3.883680   5.677455   4.833237
    13  O    4.738782   3.883680   2.491918   4.833237   5.677455
    14  C    2.548270   4.693509   4.693509   2.736837   2.736837
    15  C    2.918574   4.950004   5.877947   4.081944   2.571876
    16  C    4.458480   6.467350   7.202384   5.135604   4.040632
    17  H    4.926774   7.015847   7.196551   4.952526   4.686072
    18  H    4.919674   6.894423   7.588201   5.506174   4.502247
    19  H    4.912564   6.770822   7.960605   6.009026   4.310590
    20  C    3.943753   6.045022   5.012427   2.603790   4.265863
    21  H    4.124950   6.094818   4.398272   1.964273   4.654071
    22  H    4.398358   6.449633   5.247427   2.882589   4.729861
    23  H    4.655738   6.785920   5.977139   3.572152   4.804456
    24  S    3.001430   4.237626   6.537181   5.454959   2.231439
    25  O    3.552033   4.044921   7.213498   6.533634   2.648623
    26  O    2.617211   3.823732   5.534423   4.645149   2.359767
    27  C    4.639237   6.008359   7.918321   6.483366   3.928690
    28  F    5.377181   6.676365   8.901013   7.413233   4.505756
    29  F    5.422048   6.510211   8.504037   7.263952   4.777991
    30  F    4.859658   6.555534   7.717855   5.963482   4.355786
    31  O    2.508128   4.148610   6.153129   4.848413   1.690289
                   11         12         13         14         15
    11  N    0.000000
    12  O    1.196800   0.000000
    13  O    1.196800   2.072918   0.000000
    14  C    5.812800   6.494439   6.494439   0.000000
    15  C    6.595659   7.090127   7.425336   1.355200   0.000000
    16  C    8.115710   8.629890   8.907341   2.509019   1.540000
    17  H    8.407574   9.029697   9.098303   2.640315   2.148263
    18  H    8.528658   9.042960   9.308106   3.003658   2.148263
    19  H    8.648046   9.056203   9.513282   3.327561   2.148263
    20  C    6.716543   7.562221   7.187348   1.540000   2.509019
    21  H    6.374374   7.318579   6.703789   2.148263   3.327561
    22  H    7.030549   7.896681   7.453038   2.148263   3.003658
    23  H    7.630505   8.435256   8.133558   2.148263   2.640315
    24  S    6.408809   6.563896   7.421817   3.309798   2.534929
    25  O    6.520803   6.404307   7.634804   4.576604   3.798000
    26  O    5.545617   5.825660   6.456841   3.141529   2.969971
    27  C    8.075574   8.285348   9.029287   4.124964   3.143098
    28  F    8.950001   9.080612   9.961885   4.839524   3.617674
    29  F    8.510551   8.647801   9.448872   5.181280   4.370305
    30  F    8.324251   8.715309   9.164639   3.639547   2.817724
    31  O    6.258854   6.520551   7.246901   2.412344   1.430000
                   16         17         18         19         20
    16  C    0.000000
    17  H    1.070000   0.000000
    18  H    1.070000   1.747303   0.000000
    19  H    1.070000   1.747303   1.747303   0.000000
    20  C    2.895200   2.485692   3.249570   3.865326   0.000000
    21  H    3.865326   3.367180   4.306792   4.765075   1.070000
    22  H    3.249570   2.950754   3.251867   4.306792   1.070000
    23  H    2.485692   1.738658   2.950754   3.367180   1.070000
    24  S    3.443389   4.404945   3.410605   3.659379   4.640291
    25  O    4.703089   5.693297   4.734818   4.685459   6.004099
    26  O    4.086321   4.870366   3.955011   4.613801   4.351776
    27  C    3.243417   4.263248   2.737264   3.379203   5.075962
    28  F    3.388378   4.429236   3.036037   3.094184   5.792846
    29  F    4.520315   5.496747   3.872804   4.700645   6.081261
    30  F    2.549755   3.410638   1.729918   2.993634   4.223550
    31  O    2.572683   3.396477   3.061399   2.684824   3.831763
                   21         22         23         24         25
    21  H    0.000000
    22  H    1.747303   0.000000
    23  H    1.747303   1.747303   0.000000
    24  S    5.414361   4.743367   5.021345   0.000000
    25  O    6.699293   6.169664   6.385853   1.469600   0.000000
    26  O    4.997376   4.261219   5.006558   1.469600   2.399847
    27  C    6.042442   4.961492   5.227884   1.780000   2.659333
    28  F    6.775528   5.832073   5.733711   2.567664   3.028846
    29  F    7.023706   5.795320   6.336569   2.567664   3.028846
    30  F    5.255576   3.965651   4.294269   2.567664   3.803218
    31  O    4.525480   4.292932   4.047044   1.670000   2.566082
                   26         27         28         29         30
    26  O    0.000000
    27  C    2.659333   0.000000
    28  F    3.803218   1.350000   0.000000
    29  F    3.028846   1.350000   2.204541   0.000000
    30  F    3.028846   1.350000   2.204541   2.204541   0.000000
    31  O    2.566082   2.817629   3.140149   3.984035   3.140149
                   31
    31  O    0.000000
 Stoichiometry    C11H10F3NO5S
 Framework group  C1[X(C11H10F3NO5S)]
 Deg. of freedom    87
 Full point group                 C1      NOp   1
 Largest Abelian subgroup         C1      NOp   1
 Largest concise Abelian subgroup C1      NOp   1
                         Standard orientation:                         
 ---------------------------------------------------------------------
 Center     Atomic      Atomic             Coordinates (Angstroms)
 Number     Number       Type             X           Y           Z
 ---------------------------------------------------------------------
      1          6           0       -2.403571   -0.758517   -0.586418
      2          6           0       -3.516905   -0.141688    0.000038
      3          6           0       -3.405929    1.154013    0.522308
      4          6           0       -2.181619    1.832885    0.458122
      5          6           0       -1.068284    1.216055   -0.128334
      6          6           0       -1.179260   -0.079645   -0.650604
      7          1           0       -2.488303   -1.747813   -0.985183
      8          1           0       -4.255984    1.624976    0.970080
      9          1           0       -2.096886    2.822181    0.856887
     10          1           0       -0.329205   -0.550608   -1.098376
     11          7           0       -4.801146   -0.853791    0.067366
     12          8           0       -4.895920   -1.960323   -0.378654
     13          8           0       -5.751937   -0.327017    0.568201
     14          6           0        0.277111    1.962068   -0.198868
     15          6           0        1.353742    1.365574   -0.765991
     16          6           0        2.699138    2.111587   -0.836525
     17          1           0        2.520144    3.164481   -0.901912
     18          1           0        3.270361    1.900878    0.043365
     19          1           0        3.241697    1.787735   -1.700035
     20          6           0        0.399063    3.385915    0.375055
     21          1           0       -0.543889    3.885093    0.294048
     22          1           0        0.686934    3.332194    1.404202
     23          1           0        1.138877    3.929755   -0.174321
     24         16           0        1.601632   -1.069776   -0.107592
     25          8           0        1.485255   -2.428533   -0.655278
     26          8           0        0.663113   -0.910879    1.012076
     27          6           0        3.264253   -0.803020    0.469410
     28          9           0        4.126393   -0.948986   -0.559137
     29          9           0        3.556185   -1.702917    1.432458
     30          9           0        3.371159    0.445158    0.972524
     31          8           0        1.240502    0.043430   -1.298918
 ---------------------------------------------------------------------
 Rotational constants (GHZ):           0.5746129           0.1644331           0.1395681
 General basis read from cards:  (5D, 7F)
 There are   608 symmetry adapted cartesian basis functions of A   symmetry.
 There are   544 symmetry adapted basis functions of A   symmetry.
   544 basis functions,   900 primitive gaussians,   608 cartesian basis functions
    83 alpha electrons       83 beta electrons
       nuclear repulsion energy      2025.9175103833 Hartrees.
 NAtoms=   31 NActive=   31 NUniq=   31 SFac= 1.00D+00 NAtFMM=   60 NAOKFM=F Big=F
 Integral buffers will be    131072 words long.
 Raffenetti 2 integral format.
 Two-electron integral symmetry is turned on.
 One-electron integrals computed using PRISM.
 NBasis=   544 RedAO= T EigKep=  9.17D-05  NBF=   544
 NBsUse=   544 1.00D-06 EigRej= -1.00D+00 NBFU=   544
 ExpMin= 5.11D-02 ExpMax= 6.07D+04 ExpMxC= 2.07D+03 IAcc=3 IRadAn=         5 AccDes= 0.00D+00
 Harris functional with IExCor= 1009 and IRadAn=       5 diagonalized for initial guess.
 HarFok:  IExCor= 1009 AccDes= 0.00D+00 IRadAn=         5 IDoV= 1 UseB2=F ITyADJ=14
 ICtDFT=  3500011 ScaDFX=  1.000000  1.000000  1.000000  1.000000
 FoFCou: FMM=F IPFlag=           0 FMFlag=      100000 FMFlg1=           0
         NFxFlg=           0 DoJE=T BraDBF=F KetDBF=T FulRan=T
         wScrn=  0.000000 ICntrl=       500 IOpCl=  0 I1Cent=   200000004 NGrid=           0
         NMat0=    1 NMatS0=      1 NMatT0=    0 NMatD0=    1 NMtDS0=    0 NMtDT0=    0
 Petite list used in FoFCou.
 Requested convergence on RMS density matrix=1.00D-08 within 128 cycles.
 Requested convergence on MAX density matrix=1.00D-06.
 Requested convergence on             energy=1.00D-06.
 No special actions if energy rises.
 Integral accuracy reduced to 1.0D-05 until final iterations.
 Initial convergence to 1.0D-05 achieved.  Increase integral accuracy.
 SCF Done:  E(RM062X) =  -1553.11728285     A.U. after   16 cycles
            NFock= 16  Conv=0.44D-08     -V/T= 2.0053

 **********************************************************************

            Population analysis using the SCF Density.

 **********************************************************************

 Orbital symmetries:
       Occupied  (A) (A) (A) (A) (A) (A) (A) (A) (A) (A) (A) (A)
                 (A) (A) (A) (A) (A) (A) (A) (A) (A) (A) (A) (A)
                 (A) (A) (A) (A) (A) (A) (A) (A) (A) (A) (A) (A)
                 (A) (A) (A) (A) (A) (A) (A) (A) (A) (A) (A) (A)
                 (A) (A) (A) (A) (A) (A) (A) (A) (A) (A) (A) (A)
                 (A) (A) (A) (A) (A) (A) (A) (A) (A) (A) (A) (A)
                 (A) (A) (A) (A) (A) (A) (A) (A) (A) (A) (A)
       Virtual   (A) (A) (A) (A) (A) (A) (A) (A) (A) (A) (A) (A)
                 (A) (A) (A) (A) (A) (A) (A) (A) (A) (A) (A) (A)
                 (A) (A) (A) (A) (A) (A) (A) (A) (A) (A) (A) (A)
                 (A) (A) (A) (A) (A) (A) (A) (A) (A) (A) (A) (A)
                 (A) (A) (A) (A) (A) (A) (A) (A) (A) (A) (A) (A)
                 (A) (A) (A) (A) (A) (A) (A) (A) (A) (A) (A) (A)
                 (A) (A) (A) (A) (A) (A) (A) (A) (A) (A) (A) (A)
                 (A) (A) (A) (A) (A) (A) (A) (A) (A) (A) (A) (A)
                 (A) (A) (A) (A) (A) (A) (A) (A) (A) (A) (A) (A)
                 (A) (A) (A) (A) (A) (A) (A) (A) (A) (A) (A) (A)
                 (A) (A) (A) (A) (A) (A) (A) (A) (A) (A) (A) (A)
                 (A) (A) (A) (A) (A) (A) (A) (A) (A) (A) (A) (A)
                 (A) (A) (A) (A) (A) (A) (A) (A) (A) (A) (A) (A)
                 (A) (A) (A) (A) (A) (A) (A) (A) (A) (A) (A) (A)
                 (A) (A) (A) (A) (A) (A) (A) (A) (A) (A) (A) (A)
                 (A) (A) (A) (A) (A) (A) (A) (A) (A) (A) (A) (A)
                 (A) (A) (A) (A) (A) (A) (A) (A) (A) (A) (A) (A)
                 (A) (A) (A) (A) (A) (A) (A) (A) (A) (A) (A) (A)
                 (A) (A) (A) (A) (A) (A) (A) (A) (A) (A) (A) (A)
                 (A) (A) (A) (A) (A) (A) (A) (A) (A) (A) (A) (A)
                 (A) (A) (A) (A) (A) (A) (A) (A) (A) (A) (A) (A)
                 (A) (A) (A) (A) (A) (A) (A) (A) (A) (A) (A) (A)
                 (A) (A) (A) (A) (A) (A) (A) (A) (A) (A) (A) (A)
                 (A) (A) (A) (A) (A) (A) (A) (A) (A) (A) (A) (A)
                 (A) (A) (A) (A) (A) (A) (A) (A) (A) (A) (A) (A)
                 (A) (A) (A) (A) (A) (A) (A) (A) (A) (A) (A) (A)
                 (A) (A) (A) (A) (A) (A) (A) (A) (A) (A) (A) (A)
                 (A) (A) (A) (A) (A) (A) (A) (A) (A) (A) (A) (A)
                 (A) (A) (A) (A) (A) (A) (A) (A) (A) (A) (A) (A)
                 (A) (A) (A) (A) (A) (A) (A) (A) (A) (A) (A) (A)
                 (A) (A) (A) (A) (A) (A) (A) (A) (A) (A) (A) (A)
                 (A) (A) (A) (A) (A) (A) (A) (A) (A) (A) (A) (A)
                 (A) (A) (A) (A) (A) (A) (A) (A) (A) (A) (A) (A)
                 (A) (A) (A) (A) (A) (A) (A) (A) (A) (A) (A) (A)
                 (A) (A) (A) (A) (A) (A) (A) (A) (A) (A) (A) (A)
                 (A) (A) (A) (A) (A) (A) (A) (A) (A) (A) (A) (A)
                 (A) (A) (A) (A) (A) (A) (A) (A) (A) (A) (A) (A)
                 (A) (A) (A) (A) (A) (A) (A) (A) (A) (A) (A) (A)
                 (A) (A) (A) (A) (A)
 The electronic state is 1-A.
 Alpha  occ. eigenvalues --  -90.17880 -25.35487 -25.35132 -25.35030 -19.75342
 Alpha  occ. eigenvalues --  -19.67463 -19.66818 -19.65372 -19.65363 -14.99550
 Alpha  occ. eigenvalues --  -10.90522 -10.66213 -10.62820 -10.61402 -10.60342
 Alpha  occ. eigenvalues --  -10.59190 -10.58825 -10.58689 -10.58384 -10.58088
 Alpha  occ. eigenvalues --  -10.57552  -8.50598  -6.42824  -6.42665  -6.42542
 Alpha  occ. eigenvalues --   -1.52939  -1.44775  -1.44019  -1.38532  -1.30938
 Alpha  occ. eigenvalues --   -1.22137  -1.18240  -1.15545  -0.99444  -0.95249
 Alpha  occ. eigenvalues --   -0.93090  -0.90571  -0.86440  -0.85113  -0.83194
 Alpha  occ. eigenvalues --   -0.80527  -0.78065  -0.76437  -0.75822  -0.74223
 Alpha  occ. eigenvalues --   -0.71736  -0.68373  -0.66223  -0.65161  -0.64700
 Alpha  occ. eigenvalues --   -0.64422  -0.63508  -0.62744  -0.61461  -0.61253
 Alpha  occ. eigenvalues --   -0.60400  -0.60045  -0.59855  -0.58557  -0.57592
 Alpha  occ. eigenvalues --   -0.55999  -0.55284  -0.53670  -0.53416  -0.52023
 Alpha  occ. eigenvalues --   -0.51586  -0.50110  -0.49740  -0.47763  -0.47548
 Alpha  occ. eigenvalues --   -0.47355  -0.46945  -0.45296  -0.43859  -0.43465
 Alpha  occ. eigenvalues --   -0.41686  -0.40839  -0.39340  -0.37802  -0.37528
 Alpha  occ. eigenvalues --   -0.37277  -0.33118  -0.30984
 Alpha virt. eigenvalues --   -0.06369  -0.02553  -0.00345   0.00297   0.02858
 Alpha virt. eigenvalues --    0.05591   0.05832   0.06424   0.07385   0.07591
 Alpha virt. eigenvalues --    0.08968   0.09346   0.09568   0.10430   0.11559
 Alpha virt. eigenvalues --    0.11744   0.12418   0.12751   0.13677   0.14272
 Alpha virt. eigenvalues --    0.16481   0.16914   0.17884   0.18115   0.18666
 Alpha virt. eigenvalues --    0.19467   0.20350   0.20722   0.22214   0.23278
 Alpha virt. eigenvalues --    0.23933   0.24209   0.24972   0.25957   0.26487
 Alpha virt. eigenvalues --    0.27337   0.28419   0.28938   0.30703   0.31176
 Alpha virt. eigenvalues --    0.31567   0.32464   0.33890   0.34600   0.34841
 Alpha virt. eigenvalues --    0.37255   0.37331   0.37971   0.38211   0.39107
 Alpha virt. eigenvalues --    0.39406   0.40590   0.40694   0.41029   0.41596
 Alpha virt. eigenvalues --    0.42292   0.43213   0.43308   0.43974   0.44407
 Alpha virt. eigenvalues --    0.44976   0.45635   0.46718   0.46865   0.47485
 Alpha virt. eigenvalues --    0.47821   0.48842   0.48990   0.49601   0.50551
 Alpha virt. eigenvalues --    0.51250   0.52017   0.52277   0.52582   0.53249
 Alpha virt. eigenvalues --    0.53771   0.55015   0.55297   0.55493   0.55963
 Alpha virt. eigenvalues --    0.57288   0.57656   0.59423   0.59952   0.60104
 Alpha virt. eigenvalues --    0.61105   0.61293   0.61879   0.61958   0.62545
 Alpha virt. eigenvalues --    0.62894   0.64097   0.64757   0.65214   0.66441
 Alpha virt. eigenvalues --    0.66655   0.67855   0.68445   0.69184   0.69557
 Alpha virt. eigenvalues --    0.69697   0.70895   0.71006   0.71804   0.72156
 Alpha virt. eigenvalues --    0.72693   0.73286   0.73661   0.74159   0.74769
 Alpha virt. eigenvalues --    0.75015   0.75681   0.76223   0.76672   0.77576
 Alpha virt. eigenvalues --    0.78835   0.79095   0.79566   0.81210   0.81924
 Alpha virt. eigenvalues --    0.82329   0.83365   0.84373   0.85489   0.86314
 Alpha virt. eigenvalues --    0.88344   0.88705   0.90003   0.91376   0.92457
 Alpha virt. eigenvalues --    0.93270   0.95681   0.96151   0.96949   0.98090
 Alpha virt. eigenvalues --    0.98881   0.99039   1.00050   1.00809   1.01883
 Alpha virt. eigenvalues --    1.04234   1.05504   1.08447   1.08968   1.10449
 Alpha virt. eigenvalues --    1.11630   1.13774   1.15494   1.17622   1.18533
 Alpha virt. eigenvalues --    1.19262   1.19871   1.20356   1.22009   1.23907
 Alpha virt. eigenvalues --    1.24911   1.27207   1.28133   1.29689   1.30231
 Alpha virt. eigenvalues --    1.31250   1.31784   1.32440   1.33523   1.34006
 Alpha virt. eigenvalues --    1.34499   1.36521   1.37822   1.39061   1.39321
 Alpha virt. eigenvalues --    1.41433   1.43815   1.47294   1.48052   1.48655
 Alpha virt. eigenvalues --    1.52498   1.53758   1.55379   1.55830   1.57112
 Alpha virt. eigenvalues --    1.57742   1.58712   1.59763   1.61531   1.63085
 Alpha virt. eigenvalues --    1.64068   1.65139   1.65910   1.66820   1.68019
 Alpha virt. eigenvalues --    1.70524   1.70737   1.71303   1.73498   1.74988
 Alpha virt. eigenvalues --    1.76107   1.76426   1.77326   1.78088   1.78580
 Alpha virt. eigenvalues --    1.78940   1.79478   1.79768   1.80683   1.82480
 Alpha virt. eigenvalues --    1.83470   1.83723   1.84200   1.85211   1.86481
 Alpha virt. eigenvalues --    1.87261   1.88483   1.89334   1.90611   1.91521
 Alpha virt. eigenvalues --    1.91785   1.92147   1.93606   1.94020   1.94371
 Alpha virt. eigenvalues --    1.94949   1.96764   1.98719   1.99308   1.99667
 Alpha virt. eigenvalues --    2.01334   2.02207   2.03537   2.04585   2.05307
 Alpha virt. eigenvalues --    2.06046   2.06367   2.07970   2.09114   2.09734
 Alpha virt. eigenvalues --    2.10325   2.11556   2.12106   2.12987   2.13051
 Alpha virt. eigenvalues --    2.15638   2.16301   2.17592   2.18569   2.20575
 Alpha virt. eigenvalues --    2.22261   2.22762   2.23637   2.26278   2.27685
 Alpha virt. eigenvalues --    2.28158   2.28584   2.29637   2.30906   2.31446
 Alpha virt. eigenvalues --    2.33186   2.34292   2.35188   2.36060   2.37379
 Alpha virt. eigenvalues --    2.38170   2.39174   2.39834   2.40143   2.40569
 Alpha virt. eigenvalues --    2.41826   2.43482   2.43989   2.45944   2.46723
 Alpha virt. eigenvalues --    2.48456   2.49445   2.51971   2.52887   2.53723
 Alpha virt. eigenvalues --    2.53832   2.55044   2.57787   2.60430   2.61514
 Alpha virt. eigenvalues --    2.62680   2.65018   2.65712   2.66538   2.67704
 Alpha virt. eigenvalues --    2.70753   2.72005   2.75247   2.77200   2.78029
 Alpha virt. eigenvalues --    2.79077   2.79748   2.82124   2.84457   2.86355
 Alpha virt. eigenvalues --    2.88305   2.89969   2.91431   2.92258   2.94696
 Alpha virt. eigenvalues --    2.95295   2.97192   2.97986   2.98758   2.99921
 Alpha virt. eigenvalues --    3.01034   3.01809   3.03960   3.04965   3.07776
 Alpha virt. eigenvalues --    3.08572   3.11996   3.12430   3.13219   3.16280
 Alpha virt. eigenvalues --    3.18707   3.24525   3.26483   3.28783   3.30967
 Alpha virt. eigenvalues --    3.36039   3.40332   3.41893   3.45740   3.47456
 Alpha virt. eigenvalues --    3.48042   3.51143   3.53303   3.61859   3.63653
 Alpha virt. eigenvalues --    3.66514   3.70558   3.75459   3.88682   3.93709
 Alpha virt. eigenvalues --    3.94568   3.98480   4.06481   4.07206   4.11800
 Alpha virt. eigenvalues --    4.17210   4.20186   4.26703   4.28862   4.37664
 Alpha virt. eigenvalues --    4.62536   4.65836   4.72138   4.73340   4.87466
 Alpha virt. eigenvalues --    5.04921   5.08134   5.09027   5.12317   5.12667
 Alpha virt. eigenvalues --    5.13518   5.14400   5.14441   5.15261   5.16132
 Alpha virt. eigenvalues --    5.16892   5.17520   5.18010   5.18584   5.19610
 Alpha virt. eigenvalues --    5.24240   5.24538   5.26317   5.27798   5.30880
 Alpha virt. eigenvalues --    5.35027   5.36405   5.39786   5.44378   5.51520
 Alpha virt. eigenvalues --    5.54654   5.55272   5.55499   5.61555   5.69333
 Alpha virt. eigenvalues --    5.71419   6.09778   6.24121   6.29193   6.31946
 Alpha virt. eigenvalues --    6.33428   6.36651   6.40191   6.40827   6.42647
 Alpha virt. eigenvalues --    6.47493   6.47609   6.47730   6.52647   6.53830
 Alpha virt. eigenvalues --    6.58705   6.60531   6.67509   6.71445   6.71703
 Alpha virt. eigenvalues --    6.72749   6.76765   6.77071   6.77565   6.77899
 Alpha virt. eigenvalues --    6.78592   6.79064   6.79388   6.80544   6.80597
 Alpha virt. eigenvalues --    6.81011   6.81539   6.81799   6.82116   6.82678
 Alpha virt. eigenvalues --    6.82925   6.84248   6.85532   6.85684   6.86936
 Alpha virt. eigenvalues --    6.88361   6.88930   6.98995   7.02735   7.02794
 Alpha virt. eigenvalues --    7.03257   7.11547   7.11937   7.18627   7.23768
 Alpha virt. eigenvalues --    7.28059   7.43144   7.55373   8.18501   8.21095
 Alpha virt. eigenvalues --    8.21153   8.23441   8.24066   8.25729   8.33789
 Alpha virt. eigenvalues --    8.37199   8.38135   8.50715   8.51111   8.55375
 Alpha virt. eigenvalues --    8.69503   8.69971   8.72331   9.17950   9.33978
 Alpha virt. eigenvalues --    9.50058  21.63066  32.63402  43.63851  43.83448
 Alpha virt. eigenvalues --   43.87393  44.53513  44.54993  57.05450  57.09201
 Alpha virt. eigenvalues --   57.23899
          Condensed to atoms (all electrons):
               1          2          3          4          5          6
     1  C    5.077078   0.286695   0.009469  -0.130789   0.108591   0.244708
     2  C    0.286695   5.917182   0.295111   0.087871  -0.188421   0.091917
     3  C    0.009469   0.295111   5.063987   0.259226   0.105916  -0.137907
     4  C   -0.130789   0.087871   0.259226   5.200850   0.259612   0.035987
     5  C    0.108591  -0.188421   0.105916   0.259612   5.258699   0.260840
     6  C    0.244708   0.091917  -0.137907   0.035987   0.260840   5.195737
     7  H    0.466049  -0.028886   0.013609  -0.002521   0.016380  -0.090207
     8  H    0.013351  -0.023038   0.455119  -0.084956   0.015461  -0.002402
     9  H   -0.001696   0.017345  -0.058779   0.452383  -0.071045   0.013802
    10  H   -0.058164   0.018201  -0.001475   0.013640  -0.059300   0.473907
    11  N   -0.054530  -0.327330  -0.054438   0.028425   0.014788   0.033092
    12  O   -0.011319  -0.101680   0.006800   0.000186  -0.001783   0.002145
    13  O    0.006019  -0.101646  -0.012860   0.002048  -0.001979   0.000344
    14  C    0.009658   0.000754   0.010301  -0.081956   0.302428  -0.060249
    15  C    0.001176  -0.000222  -0.000027   0.015713  -0.022917  -0.041705
    16  C    0.000016  -0.000000   0.000004  -0.000232   0.007779  -0.000135
    17  H   -0.000001   0.000000  -0.000000   0.000002   0.000291   0.000002
    18  H   -0.000000  -0.000000  -0.000000   0.000015  -0.000293   0.000052
    19  H    0.000001  -0.000000  -0.000000   0.000008  -0.000311   0.000018
    20  C   -0.000179   0.000009   0.000791  -0.008993  -0.050937   0.007744
    21  H    0.000034  -0.000070   0.001420   0.006953  -0.021669  -0.000854
    22  H    0.000007   0.000002   0.000033   0.001633  -0.001507  -0.000272
    23  H    0.000002   0.000004  -0.000036   0.000184   0.007913  -0.000079
    24  S    0.000099   0.000144  -0.000184   0.000048  -0.003295   0.001444
    25  O    0.000126  -0.000001   0.000001  -0.000003   0.000259  -0.005373
    26  O   -0.001273  -0.000452   0.000273  -0.000642  -0.013180  -0.018801
    27  C    0.000020  -0.000000  -0.000000  -0.000010  -0.000170  -0.000056
    28  F   -0.000000  -0.000000  -0.000000   0.000000   0.000002   0.000001
    29  F   -0.000000   0.000000  -0.000000   0.000000  -0.000002   0.000006
    30  F    0.000000  -0.000000   0.000000  -0.000001  -0.000065   0.000074
    31  O    0.002568  -0.000272  -0.000034  -0.000413   0.003889  -0.062348
               7          8          9         10         11         12
     1  C    0.466049   0.013351  -0.001696  -0.058164  -0.054530  -0.011319
     2  C   -0.028886  -0.023038   0.017345   0.018201  -0.327330  -0.101680
     3  C    0.013609   0.455119  -0.058779  -0.001475  -0.054438   0.006800
     4  C   -0.002521  -0.084956   0.452383   0.013640   0.028425   0.000186
     5  C    0.016380   0.015461  -0.071045  -0.059300   0.014788  -0.001783
     6  C   -0.090207  -0.002402   0.013802   0.473907   0.033092   0.002145
     7  H    0.616265   0.000007   0.000014  -0.013197  -0.035277   0.007568
     8  H    0.000007   0.619769  -0.012270   0.000017  -0.036462  -0.002385
     9  H    0.000014  -0.012270   0.675317  -0.000114  -0.001725   0.000043
    10  H   -0.013197   0.000017  -0.000114   0.718316  -0.002293   0.000757
    11  N   -0.035277  -0.036462  -0.001725  -0.002293   6.457454   0.046541
    12  O    0.007568  -0.002385   0.000043   0.000757   0.046541   8.873803
    13  O   -0.002349   0.008954   0.000716   0.000070   0.044033  -0.201855
    14  C   -0.000297  -0.000268  -0.023385  -0.023200   0.000368  -0.000046
    15  C    0.000077   0.000005   0.000577   0.004068  -0.000052   0.000009
    16  C    0.000000  -0.000000   0.000002  -0.000269  -0.000000   0.000000
    17  H   -0.000000   0.000000  -0.000008   0.000039  -0.000000   0.000000
    18  H    0.000000   0.000000   0.000001  -0.000074  -0.000000  -0.000000
    19  H   -0.000000   0.000000   0.000000   0.000083   0.000000  -0.000000
    20  C    0.000002  -0.000018   0.005850  -0.000264   0.000005  -0.000001
    21  H    0.000000   0.000023  -0.000464  -0.000002  -0.000001  -0.000001
    22  H   -0.000000  -0.000001   0.000346  -0.000004  -0.000002   0.000000
    23  H   -0.000000  -0.000000   0.000052   0.000014  -0.000000  -0.000000
    24  S   -0.000282  -0.000001   0.000008  -0.012652   0.000066  -0.000036
    25  O    0.000233   0.000000   0.000000   0.007494   0.000004   0.000038
    26  O    0.000323  -0.000000  -0.000008  -0.015646   0.000225   0.000064
    27  C    0.000002   0.000000  -0.000000  -0.000673   0.000001   0.000001
    28  F   -0.000000  -0.000000   0.000000  -0.000012  -0.000000  -0.000000
    29  F   -0.000000  -0.000000   0.000000  -0.000006  -0.000000  -0.000000
    30  F   -0.000000  -0.000000  -0.000000  -0.000141  -0.000000  -0.000000
    31  O    0.000330  -0.000000  -0.000014  -0.066032   0.000075  -0.000035
              13         14         15         16         17         18
     1  C    0.006019   0.009658   0.001176   0.000016  -0.000001  -0.000000
     2  C   -0.101646   0.000754  -0.000222  -0.000000   0.000000  -0.000000
     3  C   -0.012860   0.010301  -0.000027   0.000004  -0.000000  -0.000000
     4  C    0.002048  -0.081956   0.015713  -0.000232   0.000002   0.000015
     5  C   -0.001979   0.302428  -0.022917   0.007779   0.000291  -0.000293
     6  C    0.000344  -0.060249  -0.041705  -0.000135   0.000002   0.000052
     7  H   -0.002349  -0.000297   0.000077   0.000000  -0.000000   0.000000
     8  H    0.008954  -0.000268   0.000005  -0.000000   0.000000   0.000000
     9  H    0.000716  -0.023385   0.000577   0.000002  -0.000008   0.000001
    10  H    0.000070  -0.023200   0.004068  -0.000269   0.000039  -0.000074
    11  N    0.044033   0.000368  -0.000052  -0.000000  -0.000000  -0.000000
    12  O   -0.201855  -0.000046   0.000009   0.000000   0.000000  -0.000000
    13  O    8.882210  -0.000032   0.000005  -0.000000  -0.000000   0.000000
    14  C   -0.000032   5.126384   0.545223  -0.078648  -0.025709  -0.007747
    15  C    0.000005   0.545223   5.225629   0.423775   0.008326  -0.020544
    16  C   -0.000000  -0.078648   0.423775   4.480751   0.384600   0.415460
    17  H   -0.000000  -0.025709   0.008326   0.384600   0.607636  -0.013050
    18  H    0.000000  -0.007747  -0.020544   0.415460  -0.013050   0.596746
    19  H    0.000000   0.008501  -0.019189   0.383939  -0.010169  -0.017577
    20  C    0.000002   0.417136  -0.073994  -0.002962  -0.000154   0.002105
    21  H   -0.000001  -0.002413   0.010117   0.000355   0.000552  -0.000091
    22  H    0.000002  -0.004421  -0.009388   0.003026  -0.001650   0.001167
    23  H   -0.000000  -0.004739  -0.023309   0.001681  -0.002789  -0.002061
    24  S   -0.000004  -0.000791  -0.047613  -0.009528   0.000260  -0.000327
    25  O    0.000000  -0.000060   0.003065  -0.000031   0.000000  -0.000013
    26  O   -0.000019   0.002237  -0.001920  -0.000210  -0.000011   0.000305
    27  C   -0.000000   0.000829   0.013170   0.010204  -0.000359   0.006031
    28  F    0.000000  -0.000106  -0.001637  -0.001049   0.000040  -0.000661
    29  F    0.000000  -0.000006  -0.000061  -0.000078   0.000003  -0.000035
    30  F    0.000000   0.000707  -0.003928  -0.039575   0.001202  -0.040053
    31  O   -0.000006  -0.056395   0.117982  -0.055550   0.004868   0.001972
              19         20         21         22         23         24
     1  C    0.000001  -0.000179   0.000034   0.000007   0.000002   0.000099
     2  C   -0.000000   0.000009  -0.000070   0.000002   0.000004   0.000144
     3  C   -0.000000   0.000791   0.001420   0.000033  -0.000036  -0.000184
     4  C    0.000008  -0.008993   0.006953   0.001633   0.000184   0.000048
     5  C   -0.000311  -0.050937  -0.021669  -0.001507   0.007913  -0.003295
     6  C    0.000018   0.007744  -0.000854  -0.000272  -0.000079   0.001444
     7  H   -0.000000   0.000002   0.000000  -0.000000  -0.000000  -0.000282
     8  H    0.000000  -0.000018   0.000023  -0.000001  -0.000000  -0.000001
     9  H    0.000000   0.005850  -0.000464   0.000346   0.000052   0.000008
    10  H    0.000083  -0.000264  -0.000002  -0.000004   0.000014  -0.012652
    11  N    0.000000   0.000005  -0.000001  -0.000002  -0.000000   0.000066
    12  O   -0.000000  -0.000001  -0.000001   0.000000  -0.000000  -0.000036
    13  O    0.000000   0.000002  -0.000001   0.000002  -0.000000  -0.000004
    14  C    0.008501   0.417136  -0.002413  -0.004421  -0.004739  -0.000791
    15  C   -0.019189  -0.073994   0.010117  -0.009388  -0.023309  -0.047613
    16  C    0.383939  -0.002962   0.000355   0.003026   0.001681  -0.009528
    17  H   -0.010169  -0.000154   0.000552  -0.001650  -0.002789   0.000260
    18  H   -0.017577   0.002105  -0.000091   0.001167  -0.002061  -0.000327
    19  H    0.596203   0.000811  -0.000005  -0.000118   0.000203  -0.001805
    20  C    0.000811   4.470980   0.377616   0.388185   0.393875  -0.000187
    21  H   -0.000005   0.377616   0.605068  -0.019312  -0.014618  -0.000030
    22  H   -0.000118   0.388185  -0.019312   0.585228  -0.014809   0.000068
    23  H    0.000203   0.393875  -0.014618  -0.014809   0.613741   0.000047
    24  S   -0.001805  -0.000187  -0.000030   0.000068   0.000047  13.926330
    25  O    0.000036  -0.000001   0.000000  -0.000000   0.000000   0.565592
    26  O    0.000050  -0.000269   0.000010   0.000178  -0.000012   0.528389
    27  C    0.002860   0.000055   0.000001  -0.000035   0.000001   0.264365
    28  F   -0.000192  -0.000001   0.000000   0.000001  -0.000000  -0.051802
    29  F    0.000013  -0.000000  -0.000000   0.000000  -0.000000  -0.052398
    30  F    0.000128  -0.000031  -0.000001   0.000081   0.000013  -0.044319
    31  O   -0.001236   0.005809  -0.000190  -0.000068  -0.000102   0.223257
              25         26         27         28         29         30
     1  C    0.000126  -0.001273   0.000020  -0.000000  -0.000000   0.000000
     2  C   -0.000001  -0.000452  -0.000000  -0.000000   0.000000  -0.000000
     3  C    0.000001   0.000273  -0.000000  -0.000000  -0.000000   0.000000
     4  C   -0.000003  -0.000642  -0.000010   0.000000   0.000000  -0.000001
     5  C    0.000259  -0.013180  -0.000170   0.000002  -0.000002  -0.000065
     6  C   -0.005373  -0.018801  -0.000056   0.000001   0.000006   0.000074
     7  H    0.000233   0.000323   0.000002  -0.000000  -0.000000  -0.000000
     8  H    0.000000  -0.000000   0.000000  -0.000000  -0.000000  -0.000000
     9  H    0.000000  -0.000008  -0.000000   0.000000   0.000000  -0.000000
    10  H    0.007494  -0.015646  -0.000673  -0.000012  -0.000006  -0.000141
    11  N    0.000004   0.000225   0.000001  -0.000000  -0.000000  -0.000000
    12  O    0.000038   0.000064   0.000001  -0.000000  -0.000000  -0.000000
    13  O    0.000000  -0.000019  -0.000000   0.000000   0.000000   0.000000
    14  C   -0.000060   0.002237   0.000829  -0.000106  -0.000006   0.000707
    15  C    0.003065  -0.001920   0.013170  -0.001637  -0.000061  -0.003928
    16  C   -0.000031  -0.000210   0.010204  -0.001049  -0.000078  -0.039575
    17  H    0.000000  -0.000011  -0.000359   0.000040   0.000003   0.001202
    18  H   -0.000013   0.000305   0.006031  -0.000661  -0.000035  -0.040053
    19  H    0.000036   0.000050   0.002860  -0.000192   0.000013   0.000128
    20  C   -0.000001  -0.000269   0.000055  -0.000001  -0.000000  -0.000031
    21  H    0.000000   0.000010   0.000001   0.000000  -0.000000  -0.000001
    22  H   -0.000000   0.000178  -0.000035   0.000001   0.000000   0.000081
    23  H    0.000000  -0.000012   0.000001  -0.000000  -0.000000   0.000013
    24  S    0.565592   0.528389   0.264365  -0.051802  -0.052398  -0.044319
    25  O    7.971339  -0.073485  -0.033766   0.000265   0.000189   0.001436
    26  O   -0.073485   8.061571  -0.029238   0.001235  -0.000047   0.000017
    27  C   -0.033766  -0.029238   4.295355   0.259392   0.291712   0.221854
    28  F    0.000265   0.001235   0.259392   9.118146  -0.065519  -0.061895
    29  F    0.000189  -0.000047   0.291712  -0.065519   9.080773  -0.062162
    30  F    0.001436   0.000017   0.221854  -0.061895  -0.062162   9.235078
    31  O   -0.028908  -0.040162  -0.019974   0.002018   0.000571  -0.000015
              31
     1  C    0.002568
     2  C   -0.000272
     3  C   -0.000034
     4  C   -0.000413
     5  C    0.003889
     6  C   -0.062348
     7  H    0.000330
     8  H   -0.000000
     9  H   -0.000014
    10  H   -0.066032
    11  N    0.000075
    12  O   -0.000035
    13  O   -0.000006
    14  C   -0.056395
    15  C    0.117982
    16  C   -0.055550
    17  H    0.004868
    18  H    0.001972
    19  H   -0.001236
    20  C    0.005809
    21  H   -0.000190
    22  H   -0.000068
    23  H   -0.000102
    24  S    0.223257
    25  O   -0.028908
    26  O   -0.040162
    27  C   -0.019974
    28  F    0.002018
    29  F    0.000571
    30  F   -0.000015
    31  O    8.315065
 Mulliken charges:
               1
     1  C    0.032282
     2  C    0.056787
     3  C    0.043681
     4  C   -0.054269
     5  C    0.074027
     6  C    0.058570
     7  H    0.052157
     8  H    0.049093
     9  H    0.003051
    10  H    0.016912
    11  N    0.887034
    12  O   -0.618815
    13  O   -0.623649
    14  C   -0.054057
    15  C   -0.102411
    16  C    0.076673
    17  H    0.046080
    18  H    0.078673
    19  H    0.057748
    20  C    0.067016
    21  H    0.057571
    22  H    0.071630
    23  H    0.044825
    24  S    0.715136
    25  O   -0.408438
    26  O   -0.399502
    27  C    0.718432
    28  F   -0.198228
    29  F   -0.192953
    30  F   -0.208404
    31  O   -0.346652
 Sum of Mulliken charges =  -0.00000
 Mulliken charges with hydrogens summed into heavy atoms:
               1
     1  C    0.084439
     2  C    0.056787
     3  C    0.092774
     4  C   -0.051218
     5  C    0.074027
     6  C    0.075481
    11  N    0.887034
    12  O   -0.618815
    13  O   -0.623649
    14  C   -0.054057
    15  C   -0.102411
    16  C    0.259175
    20  C    0.241042
    24  S    0.715136
    25  O   -0.408438
    26  O   -0.399502
    27  C    0.718432
    28  F   -0.198228
    29  F   -0.192953
    30  F   -0.208404
    31  O   -0.346652
 Electronic spatial extent (au):  <R**2>=           7225.8630
 Charge=             -0.0000 electrons
 Dipole moment (field-independent basis, Debye):
    X=              6.7160    Y=              6.5578    Z=             -0.1306  Tot=              9.3876
 Quadrupole moment (field-independent basis, Debye-Ang):
   XX=           -148.7271   YY=           -122.8742   ZZ=           -128.2889
   XY=             -5.3671   XZ=              0.5168   YZ=              0.8761
 Traceless Quadrupole moment (field-independent basis, Debye-Ang):
   XX=            -15.4303   YY=             10.4225   ZZ=              5.0078
   XY=             -5.3671   XZ=              0.5168   YZ=              0.8761
 Octapole moment (field-independent basis, Debye-Ang**2):
  XXX=            296.9302  YYY=             22.2384  ZZZ=             12.0799  XYY=             30.9364
  XXY=             52.8223  XXZ=              0.4233  XZZ=             19.7040  YZZ=             -9.7527
  YYZ=             15.0205  XYZ=             -8.8155
 Hexadecapole moment (field-independent basis, Debye-Ang**3):
 XXXX=          -7618.3259 YYYY=          -1843.6105 ZZZZ=           -471.7743 XXXY=           -312.7856
 XXXZ=             98.7861 YYYX=            -38.6075 YYYZ=             -5.4486 ZZZX=             27.5087
 ZZZY=             -0.1660 XXYY=          -1438.1741 XXZZ=          -1135.3632 YYZZ=           -393.2830
 XXYZ=            -14.5597 YYXZ=            -11.2386 ZZXY=              0.4298
 N-N= 2.025917510383D+03 E-N=-7.705717849945D+03  KE= 1.544996480056D+03
 Calling FoFJK, ICntrl=      2127 FMM=F ISym2X=0 I1Cent= 0 IOpClX= 0 NMat=1 NMatS=1 NMatT=0.
 ***** Axes restored to original set *****
 -------------------------------------------------------------------
 Center     Atomic                   Forces (Hartrees/Bohr)
 Number     Number              X              Y              Z
 -------------------------------------------------------------------
      1        6           0.014636310    0.001135221    0.009273545
      2        6           0.018508242   -0.000288789   -0.009587014
      3        6          -0.001367648   -0.000018564   -0.012997389
      4        6          -0.025239522   -0.000146438   -0.008638532
      5        6           0.031741698    0.001035609   -0.013468445
      6        6          -0.026829259    0.007303046    0.033762039
      7        1          -0.013367029   -0.000175101   -0.005934109
      8        1          -0.002177066   -0.000085221    0.014598212
      9        1           0.009621714   -0.000704564    0.009301460
     10        1          -0.021147072    0.011151017    0.018310823
     11        7          -0.008367565   -0.000240328    0.004165928
     12        8          -0.011715513    0.000135393   -0.036324372
     13        8           0.025590833    0.000091637    0.029867804
     14        6          -0.025236886    0.001778980    0.007709226
     15        6           0.031628857    0.007940981    0.018724489
     16        6          -0.037012167    0.007355029    0.008515339
     17        1           0.009950038    0.010123429    0.003818421
     18        1           0.015822015    0.002253687    0.000214364
     19        1          -0.000965083    0.009276671   -0.019236558
     20        6          -0.038498426    0.004688261   -0.018491537
     21        1           0.000970561    0.008533375    0.015781344
     22        1           0.007052978   -0.019577165    0.004600431
     23        1           0.013372725    0.007353110   -0.002597363
     24       16          -0.132146805   -0.009687673    0.064239886
     25        8           0.066635684    0.017824690    0.003899153
     26        8           0.042606064    0.016959716   -0.051139406
     27        6           0.036538399   -0.022539124   -0.034583077
     28        9          -0.000770516   -0.012913656    0.023311315
     29        9           0.007567826    0.034329001    0.008026970
     30        9          -0.031539144   -0.029947143   -0.019674743
     31        8           0.044135757   -0.052945085   -0.045448203
 -------------------------------------------------------------------
 Cartesian Forces:  Max     0.132146805 RMS     0.025830782

 GradGradGradGradGradGradGradGradGradGradGradGradGradGradGradGradGradGrad
 Berny optimization.
 FormGI is forming the generalized inverse of G from B-inverse, IUseBI=4.
 Internal  Forces:  Max     0.169302294 RMS     0.031638526
 Search for a local minimum.
 Step number   1 out of a maximum of  155
 All quantities printed in internal units (Hartrees-Bohrs-Radians)
 Mixed Optimization -- RFO/linear search
 Second derivative matrix not updated -- first step.
 ITU=  0
     Eigenvalues ---    0.00237   0.00237   0.00237   0.00635   0.00766
     Eigenvalues ---    0.00766   0.00935   0.01228   0.01295   0.01498
     Eigenvalues ---    0.01680   0.01693   0.02070   0.02070   0.02070
     Eigenvalues ---    0.02070   0.02070   0.02070   0.02070   0.02681
     Eigenvalues ---    0.07243   0.07243   0.07243   0.07243   0.08130
     Eigenvalues ---    0.08789   0.09110   0.09110   0.16000   0.16000
     Eigenvalues ---    0.16000   0.16000   0.16000   0.16000   0.16000
     Eigenvalues ---    0.16000   0.16000   0.16000   0.17310   0.21379
     Eigenvalues ---    0.22000   0.22981   0.24000   0.25000   0.25000
     Eigenvalues ---    0.25000   0.25000   0.25000   0.25000   0.25000
     Eigenvalues ---    0.25000   0.25000   0.25000   0.25000   0.25000
     Eigenvalues ---    0.25000   0.27758   0.28519   0.28519   0.28519
     Eigenvalues ---    0.35740   0.37230   0.37230   0.37230   0.37230
     Eigenvalues ---    0.37230   0.37230   0.37230   0.37230   0.37230
     Eigenvalues ---    0.37230   0.39757   0.40989   0.41268   0.41640
     Eigenvalues ---    0.45389   0.45389   0.45389   0.45389   0.53930
     Eigenvalues ---    0.55021   0.55021   0.55021   0.87694   0.87694
     Eigenvalues ---    1.06448   1.06448
 RFO step:  Lambda=-2.73826302D-01 EMin= 2.36824211D-03
 Linear search not attempted -- first point.
 Maximum step size (   0.300) exceeded in Quadratic search.
    -- Step size scaled by   0.439
 Iteration  1 RMS(Cart)=  0.24356014 RMS(Int)=  0.01076948
 Iteration  2 RMS(Cart)=  0.05465685 RMS(Int)=  0.00043630
 Iteration  3 RMS(Cart)=  0.00109513 RMS(Int)=  0.00019383
 Iteration  4 RMS(Cart)=  0.00000058 RMS(Int)=  0.00019383
 Variable       Old X    -DE/DX   Delta X   Delta X   Delta X     New X
                                 (Linear)    (Quad)   (Total)
    R1        2.64826  -0.01914   0.00000  -0.01196  -0.01199   2.63627
    R2        2.64826  -0.00950   0.00000  -0.00558  -0.00559   2.64267
    R3        2.02201   0.01454   0.00000   0.00988   0.00988   2.03188
    R4        2.64826  -0.02394   0.00000  -0.01499  -0.01502   2.63324
    R5        2.77790  -0.00592   0.00000  -0.00411  -0.00411   2.77378
    R6        2.64826  -0.01280   0.00000  -0.00786  -0.00786   2.64041
    R7        2.02201   0.01460   0.00000   0.00992   0.00992   2.03192
    R8        2.64826   0.00954   0.00000   0.00617   0.00620   2.65446
    R9        2.02201   0.01298   0.00000   0.00882   0.00882   2.03083
   R10        2.64826   0.02182   0.00000   0.01371   0.01374   2.66200
   R11        2.91018   0.02492   0.00000   0.01956   0.01956   2.92974
   R12        2.02201  -0.01831   0.00000  -0.01244  -0.01244   2.00957
   R13        2.26162   0.02831   0.00000   0.00928   0.00928   2.27091
   R14        2.26162   0.02987   0.00000   0.00979   0.00979   2.27142
   R15        2.56096   0.03934   0.00000   0.02123   0.02123   2.58219
   R16        2.91018  -0.01517   0.00000  -0.01191  -0.01191   2.89827
   R17        2.91018  -0.00723   0.00000  -0.00567  -0.00567   2.90450
   R18        2.70231  -0.00292   0.00000  -0.00187  -0.00187   2.70043
   R19        2.02201   0.01377   0.00000   0.00935   0.00935   2.03136
   R20        2.02201   0.00241   0.00000   0.00163   0.00163   2.02364
   R21        2.02201   0.02130   0.00000   0.01447   0.01447   2.03647
   R22        2.02201   0.01770   0.00000   0.01202   0.01202   2.03403
   R23        2.02201   0.02126   0.00000   0.01444   0.01444   2.03644
   R24        2.02201   0.01419   0.00000   0.00964   0.00964   2.03165
   R25        2.77714  -0.05966   0.00000  -0.02275  -0.02275   2.75439
   R26        2.77714  -0.05777   0.00000  -0.02203  -0.02203   2.75511
   R27        3.36371   0.03525   0.00000   0.02806   0.02806   3.39177
   R28        3.15584   0.00983   0.00000   0.00643   0.00643   3.16227
   R29        2.55113  -0.02655   0.00000  -0.01414  -0.01414   2.53699
   R30        2.55113  -0.03589   0.00000  -0.01911  -0.01911   2.53202
   R31        2.55113  -0.03715   0.00000  -0.01978  -0.01978   2.53135
    A1        2.09440   0.00275   0.00000   0.00178   0.00173   2.09613
    A2        2.09440  -0.00294   0.00000  -0.00247  -0.00245   2.09195
    A3        2.09440   0.00019   0.00000   0.00069   0.00071   2.09511
    A4        2.09440   0.00553   0.00000   0.00301   0.00294   2.09734
    A5        2.09440  -0.00169   0.00000  -0.00060  -0.00057   2.09382
    A6        2.09440  -0.00384   0.00000  -0.00241  -0.00238   2.09202
    A7        2.09440  -0.00479   0.00000  -0.00557  -0.00560   2.08880
    A8        2.09440   0.00020   0.00000   0.00056   0.00057   2.09497
    A9        2.09440   0.00460   0.00000   0.00501   0.00502   2.09942
   A10        2.09440   0.02270   0.00000   0.02031   0.02036   2.11475
   A11        2.09440  -0.01463   0.00000  -0.01347  -0.01350   2.08090
   A12        2.09440  -0.00807   0.00000  -0.00684  -0.00686   2.08753
   A13        2.09440  -0.03618   0.00000  -0.02919  -0.02913   2.06526
   A14        2.09440  -0.07832   0.00000  -0.06617  -0.06621   2.02818
   A15        2.09440   0.11450   0.00000   0.09536   0.09531   2.18971
   A16        2.09440   0.00999   0.00000   0.00966   0.00968   2.10407
   A17        2.09440  -0.02638   0.00000  -0.02646  -0.02648   2.06792
   A18        2.09440   0.01639   0.00000   0.01680   0.01678   2.11117
   A19        2.09440  -0.01930   0.00000  -0.01617  -0.01617   2.07823
   A20        2.09440  -0.01929   0.00000  -0.01616  -0.01616   2.07823
   A21        2.09440   0.03859   0.00000   0.03233   0.03233   2.12673
   A22        2.09440   0.16349   0.00000   0.13696   0.13696   2.23135
   A23        2.09440  -0.09615   0.00000  -0.08055  -0.08055   2.01384
   A24        2.09440  -0.06734   0.00000  -0.05642  -0.05642   2.03798
   A25        2.09440  -0.02160   0.00000  -0.01809  -0.01816   2.07623
   A26        2.09440   0.07494   0.00000   0.06278   0.06269   2.15709
   A27        2.09440  -0.05334   0.00000  -0.04469  -0.04475   2.04964
   A28        1.91063  -0.00188   0.00000  -0.00241  -0.00242   1.90822
   A29        1.91063   0.02048   0.00000   0.02126   0.02122   1.93185
   A30        1.91063  -0.00081   0.00000  -0.00085  -0.00089   1.90975
   A31        1.91063  -0.00896   0.00000  -0.00900  -0.00901   1.90162
   A32        1.91063  -0.00389   0.00000  -0.00500  -0.00501   1.90562
   A33        1.91063  -0.00494   0.00000  -0.00400  -0.00405   1.90658
   A34        1.91063   0.00229   0.00000   0.00220   0.00219   1.91282
   A35        1.91063   0.00029   0.00000   0.00032   0.00032   1.91095
   A36        1.91063   0.00782   0.00000   0.00801   0.00800   1.91863
   A37        1.91063  -0.00225   0.00000  -0.00247  -0.00247   1.90817
   A38        1.91063  -0.00532   0.00000  -0.00543  -0.00544   1.90519
   A39        1.91063  -0.00285   0.00000  -0.00263  -0.00264   1.90799
   A40        1.91063   0.04412   0.00000   0.04063   0.04006   1.95070
   A41        1.91063  -0.03779   0.00000  -0.03597  -0.03573   1.87491
   A42        1.91063  -0.03943   0.00000  -0.03776  -0.03700   1.87363
   A43        1.91063  -0.04437   0.00000  -0.03625  -0.03670   1.87394
   A44        1.91063   0.00173   0.00000   0.00773   0.00815   1.91878
   A45        1.91063   0.07575   0.00000   0.06162   0.06208   1.97271
   A46        1.91063   0.00405   0.00000   0.00480   0.00466   1.91529
   A47        1.91063  -0.01634   0.00000  -0.01571  -0.01565   1.89499
   A48        1.91063   0.03079   0.00000   0.02641   0.02633   1.93697
   A49        1.91063   0.00194   0.00000   0.00039   0.00039   1.91102
   A50        1.91063  -0.00358   0.00000   0.00104   0.00078   1.91141
   A51        1.91063  -0.01686   0.00000  -0.01693  -0.01680   1.89384
   A52        1.91063   0.16930   0.00000   0.14183   0.14183   2.05247
    D1        0.00000   0.00139   0.00000   0.00209   0.00205   0.00205
    D2        3.14159   0.00023   0.00000   0.00032   0.00027  -3.14132
    D3        3.14159   0.00237   0.00000   0.00357   0.00360  -3.13799
    D4        0.00000   0.00121   0.00000   0.00180   0.00182   0.00182
    D5        0.00000   0.00057   0.00000   0.00088   0.00099   0.00099
    D6        3.14159   0.00530   0.00000   0.00791   0.00800  -3.13359
    D7        3.14159  -0.00041   0.00000  -0.00060  -0.00056   3.14103
    D8       -0.00000   0.00431   0.00000   0.00643   0.00645   0.00645
    D9       -0.00000  -0.00071   0.00000  -0.00108  -0.00113  -0.00113
   D10        3.14159  -0.00117   0.00000  -0.00178  -0.00176   3.13983
   D11        3.14159   0.00045   0.00000   0.00069   0.00064  -3.14095
   D12        0.00000  -0.00001   0.00000  -0.00001   0.00001   0.00001
   D13        0.00000   0.00045   0.00000   0.00068   0.00068   0.00068
   D14        3.14159   0.00067   0.00000   0.00102   0.00102  -3.14057
   D15        3.14159  -0.00071   0.00000  -0.00108  -0.00108   3.14051
   D16       -0.00000  -0.00049   0.00000  -0.00075  -0.00075  -0.00075
   D17        0.00000  -0.00193   0.00000  -0.00291  -0.00286  -0.00286
   D18        3.14159  -0.00032   0.00000  -0.00049  -0.00037   3.14122
   D19        3.14159  -0.00147   0.00000  -0.00221  -0.00223   3.13937
   D20       -0.00000   0.00014   0.00000   0.00021   0.00026   0.00026
   D21        0.00000   0.00389   0.00000   0.00588   0.00577   0.00577
   D22        3.14159  -0.00207   0.00000  -0.00317  -0.00273   3.13886
   D23        3.14159   0.00228   0.00000   0.00347   0.00328  -3.13831
   D24       -0.00000  -0.00368   0.00000  -0.00559  -0.00523  -0.00523
   D25       -0.00000  -0.00321   0.00000  -0.00487  -0.00482  -0.00482
   D26        3.14159  -0.00794   0.00000  -0.01190  -0.01201   3.12959
   D27        3.14159   0.00274   0.00000   0.00418   0.00455  -3.13704
   D28        0.00000  -0.00198   0.00000  -0.00285  -0.00263  -0.00263
   D29        3.14159  -0.01207   0.00000  -0.01945  -0.01926   3.12234
   D30        0.00000  -0.01565   0.00000  -0.02501  -0.02506  -0.02506
   D31       -0.00000  -0.01803   0.00000  -0.02850  -0.02845  -0.02845
   D32        3.14159  -0.02161   0.00000  -0.03406  -0.03425   3.10734
   D33        3.14159  -0.03290   0.00000  -0.04872  -0.04925   3.09234
   D34       -0.00000  -0.01833   0.00000  -0.02637  -0.02616  -0.02616
   D35       -0.00000  -0.02931   0.00000  -0.04316  -0.04338  -0.04338
   D36        3.14159  -0.01474   0.00000  -0.02082  -0.02029   3.12130
   D37       -0.52360   0.00228   0.00000   0.00346   0.00325  -0.52034
   D38        1.57080   0.00111   0.00000   0.00198   0.00177   1.57256
[...]
 1305,0.00055399,0.00010371,0.00002725,-0.00008679,-0.00018775,0.000036
 74,-0.00026800,-0.00010496,-0.00025468,0.00005045,-0.00023543,-0.00022
 532,0.00048162,0.00010367,0.00006024,0.00000677,0.00022138,0.00009475,
 0.00013612,-0.00011271,-0.00002808,-0.00004307,0.10391161,-0.00717753,
 -0.11613939,-0.10915880,-0.00362695,0.07998442,0.00020752,-0.00013129,
 0.00020665,0.00021705,0.00017459,-0.00022970,0.00018309,-0.00012093,-0
 .00005107,-0.00045676,0.00070634,-0.00025239,-0.00114643,0.00049640,0.
 00048819,0.00034449,-0.00005984,0.00011347,0.00004146,-0.00010726,-0.0
 0009029,-0.00004609,-0.00000440,-0.00005038,0.00000754,0.00002058,0.00
 045100,-0.00011053,-0.00014088,-0.00006405,-0.00013077,0.00009001,-0.0
 0030096,0.00020012,-0.00007022,0.00016402,0.00003425,-0.00006862,0.000
 16299,0.00051184,-0.00097657,0.00198689,-0.00277106,-0.00253979,-0.002
 47545,0.00073477,0.00103795,0.00052787,0.00035235,-0.00022165,-0.00011
 853,0.00067644,0.00022744,-0.00086302,-0.00009233,-0.00043479,0.000060
 08,0.00025073,-0.00023288,0.00013502,-0.00008057,-0.00009877,-0.000058
 67,-0.00002240,0.00022927,0.00015550,0.00011447,0.00012801,-0.00000439
 ,-0.34390747,0.17813856,-0.23704162,-0.01427167,0.02130399,-0.02855090
 ,0.34421035,-0.00007542,0.00003356,-0.00005519,0.00064351,-0.00007664,
 -0.00009658,-0.00043889,0.00020903,-0.00014743,0.00085325,-0.00041709,
 -0.00003439,-0.00107798,-0.00027006,0.00054623,0.00010390,0.00002281,-
 0.00025487,-0.00000789,0.00001139,-0.00001250,0.00008912,-0.00009015,-
 0.00007973,-0.00013010,-0.00028969,-0.00021654,-0.00017557,0.00028042,
 0.00000782,-0.00096589,-0.00039356,0.00070713,0.00037828,0.00006977,-0
 .00019181,0.00038949,0.00037940,-0.00047268,-0.00118595,-0.00129562,0.
 00075289,0.01068488,0.00458719,0.00607882,-0.00050933,-0.00068406,-0.0
 0100488,-0.00047532,0.00004637,0.00017232,-0.00015435,-0.00015021,0.00
 009772,0.00023700,0.00011890,-0.00016972,0.00060400,-0.00028605,-0.000
 43084,-0.00034990,-0.00016587,-0.00021841,-0.00025664,-0.00008418,-0.0
 0025390,-0.00005482,-0.00004179,0.00007706,0.18091068,-0.21245028,0.16
 458285,-0.00543865,0.01363199,0.00743346,-0.19872969,0.21716337,0.0006
 0543,0.00002723,-0.00023642,0.00022798,-0.00025949,0.00033579,-0.00081
 514,-0.00031201,0.00026741,-0.00040794,-0.00020852,-0.00085610,0.00043
 815,0.00006878,-0.00054642,-0.00062250,0.00039851,0.00003855,-0.000027
 31,-0.00002499,-0.00005005,-0.00014406,0.00002615,0.00012278,0.0004826
 2,0.00008824,0.00062631,0.00007499,-0.00024354,0.00001493,-0.00078550,
 0.00017918,0.00007446,0.00058502,-0.00019475,0.00005579,0.00026518,-0.
 00011839,-0.00000129,0.00167595,-0.00007641,0.00138794,-0.00540031,-0.
 00552708,-0.00456272,0.00101516,0.00073580,0.00061201,0.00022680,0.000
 11035,-0.00006909,-0.00031309,0.00026885,-0.00055226,-0.00033374,-0.00
 032998,0.00014487,-0.00014286,-0.00004434,0.00062991,0.00012048,0.0000
 4959,0.00003881,0.00027000,0.00026545,0.00027714,-0.00006825,0.0000247
 0,-0.00006508,-0.24145131,0.16860287,-0.32661181,0.00932944,0.00255708
 ,0.01989242,0.26199220,-0.19806480,0.31352817,0.00004859,-0.00000588,-
 0.00013277,-0.00011516,-0.00003243,0.00009746,-0.00000160,-0.00004293,
 0.00000354,-0.00027088,-0.00000902,0.00001320,0.00042584,-0.00008198,0
 .00005361,-0.00030940,-0.00013150,0.00017817,-0.00001670,0.00004523,0.
 00008221,-0.00000444,0.00001581,0.00003230,0.00008415,0.00007410,0.000
 05381,0.00011195,0.00012424,0.00008049,0.00040012,-0.00005955,0.000052
 77,-0.00025070,0.00004761,-0.00009500,-0.00011363,0.00000036,-0.000044
 50,-0.00199415,-0.00048572,-0.00024753,0.00702824,-0.00029824,-0.00219
 844,0.00129615,-0.00058436,0.00023729,-0.00057269,0.00079095,0.0006011
 7,-0.00210230,0.00002350,-0.00141784,-0.00003464,-0.00119875,0.0001034
 0,0.00013113,0.00025184,-0.00019836,-0.00001979,0.00003356,0.00003879,
 -0.00003293,-0.00007210,-0.00002033,-0.00021668,-0.00011701,-0.0000590
 4,-0.02506442,0.01340346,0.02432874,-0.01890703,0.00584349,0.01885066,
 -0.00812744,0.00218604,-0.02286882,0.58462357,0.00003776,-0.00001190,0
 .00001138,-0.00028400,0.00005416,0.00003759,0.00026614,-0.00001301,0.0
 0001607,-0.00027336,-0.00000563,0.00021486,0.00020820,-0.00014884,-0.0
 0006637,0.00001266,0.00004102,0.00009215,0.00006332,-0.00003776,-0.000
 06828,0.00001201,0.00004847,-0.00001460,-0.00002201,0.00001537,-0.0001
 6833,-0.00000731,-0.00016975,-0.00006274,0.00095866,0.00040616,-0.0007
 8073,-0.00039672,-0.00007678,0.00023683,-0.00042901,-0.00037530,0.0004
 9397,-0.00060476,-0.00042113,0.00000540,0.00117059,-0.00504488,-0.0032
 0915,0.00051436,0.00055686,0.00003206,0.00013026,0.00007723,0.00020783
 ,-0.00058200,0.00008194,-0.00008661,-0.00038873,-0.00052074,0.00017645
 ,-0.00020694,0.00058479,-0.00017521,0.00014787,0.00009163,0.00010551,-
 0.00007098,-0.00010018,0.00000119,-0.00002207,-0.00001152,-0.00005022,
 0.01066437,-0.04623945,-0.05648740,-0.01024304,0.00538080,0.00686827,0
 .01063269,-0.00167446,0.02740506,0.00206413,0.58653925,0.00027540,0.00
 017438,-0.00023917,-0.00037734,-0.00012168,0.00024176,0.00018021,0.000
 07496,-0.00003183,-0.00030287,0.00017966,0.00008007,0.00063899,0.00003
 067,-0.00056315,-0.00046410,-0.00022545,0.00045306,0.00003424,-0.00006
 453,0.00005534,0.00001786,-0.00000872,-0.00010112,-0.00006436,-0.00002
 939,-0.00024617,0.00014738,-0.00017124,0.00002097,0.00181255,-0.000102
 76,-0.00067739,-0.00096490,0.00022841,0.00011088,-0.00062987,-0.000082
 75,0.00039532,0.00252670,0.00110138,-0.00007361,-0.01032943,-0.0002567
 7,-0.00211673,0.00040625,0.00023391,0.00090556,0.00053611,-0.00003691,
 -0.00040414,-0.00000031,-0.00017898,0.00057867,-0.00000002,0.00053213,
 0.00001981,-0.00046803,-0.00054820,0.00087535,0.00016775,0.00016242,0.
 00011302,0.00037260,0.00015467,0.00020620,0.00014603,0.00000062,-0.000
 04914,0.01926467,-0.06908272,-0.17306565,-0.02195996,0.00522541,0.0154
 1072,0.00737106,-0.00231121,0.01002249,0.01017408,-0.01791505,0.553826
 35,-0.00001900,-0.00002515,0.00007660,0.00009745,0.00003164,-0.0000623
 8,-0.00003896,-0.00002463,0.00000495,0.00007289,-0.00002290,-0.0000506
 1,-0.00018303,0.00002416,0.00003136,0.00011546,0.00006090,-0.00011051,
 0.00000619,-0.00001260,-0.00004251,-0.00000755,0.00000331,0.00000747,0
 .00001229,-0.00000049,0.00006942,-0.00005743,-0.00002617,-0.00002703,-
 0.00033540,0.00007953,0.00000173,0.00021390,-0.00006590,0.00004308,0.0
 0009992,-0.00002837,0.00000465,0.00014595,0.00006268,0.00014012,-0.000
 29472,-0.00001702,0.00048408,-0.00024710,0.00017847,-0.00015693,0.0000
 7235,-0.00015558,-0.00007724,0.00039215,0.00002232,0.00021713,0.000001
 90,0.00015640,0.00001204,0.00003180,0.00000125,-0.00006025,-0.00001597
 ,-0.00003153,-0.00002096,-0.00003686,0.00000545,-0.00000293,0.00003005
 ,0.00003054,0.00001419,-0.00827147,0.01014311,-0.00328524,0.00626754,-
 0.00216757,0.00024240,0.00134449,-0.00152505,-0.00310911,-0.14601806,0
 .06294294,-0.10029845,0.20187200,0.00000171,0.00001693,-0.00003880,0.0
 0001067,-0.00002190,0.00001737,-0.00001946,0.00003320,-0.00001824,0.00
 003528,0.00001644,-0.00001420,0.00000087,0.00002373,0.00001149,-0.0000
 4358,-0.00006365,0.00005944,-0.00001507,0.00000619,0.00003371,0.000004
 24,-0.00001247,-0.00000732,-0.00001398,-0.00001142,-0.00002478,0.00002
 531,0.00005143,0.00002979,0.00001125,-0.00012374,0.00012696,-0.0000442
 0,0.00005520,-0.00005942,0.00002324,0.00008963,-0.00008917,-0.00006379
 ,-0.00001650,-0.00011533,0.00032924,0.00113613,0.00007960,0.00006523,-
 0.00022114,0.00012266,-0.00004996,0.00006879,-0.00002247,-0.00009971,-
 0.00001484,-0.00006221,0.00012736,0.00005533,-0.00000868,0.00005061,-0
 .00012703,0.00004836,-0.00003045,-0.00000621,-0.00001369,0.00002421,0.
 00001013,-0.00000694,-0.00000274,-0.00001288,0.00000659,0.00379942,-0.
 00287572,0.00101427,-0.00168281,0.00133320,-0.00072772,-0.00100675,0.0
 0155740,-0.00011883,0.06128619,-0.12677338,0.08184142,-0.10767890,0.17
 654032,-0.00005390,-0.00005929,0.00011119,0.00019463,0.00004439,-0.000
 08638,-0.00013741,-0.00008314,0.00003444,0.00007447,-0.00007658,-0.000
 12924,-0.00019115,0.00004740,0.00008082,0.00011003,0.00009184,-0.00023
 020,-0.00001032,0.00001646,-0.00004372,-0.00002389,0.00001137,0.000050
 43,0.00007687,0.00003779,0.00021792,-0.00006600,0.00003157,-0.00001792
 ,-0.00082683,0.00010563,0.00021395,0.00048065,-0.00013497,-0.00000515,
 0.00027769,-0.00000928,-0.00011782,-0.00039990,-0.00000349,0.00020096,
 0.00231262,0.00070853,0.00088192,-0.00022286,0.00010077,-0.00031868,-0
 .00010112,-0.00007509,0.00007953,0.00017427,0.00007349,-0.00012157,-0.
 00004999,-0.00014355,-0.00000249,0.00015042,0.00004241,-0.00017185,-0.
 00005611,-0.00006810,-0.00004965,-0.00008312,0.,-0.00000428,-0.0000403
 2,0.00002161,0.00001073,-0.02812522,0.03345514,-0.01481834,0.00722617,
 -0.00437321,-0.00050546,-0.00265722,-0.00265504,-0.01566195,-0.1004299
 0,0.08487672,-0.22170753,0.14268005,-0.13207337,0.23344005,-0.00001313
 ,-0.00001308,0.00003776,0.00006977,0.00001191,-0.00003811,-0.00002204,
 0.00001459,-0.00001012,0.00008157,0.00000813,-0.00002442,-0.00015376,0
 .00000525,0.00003577,0.00008413,-0.00000078,-0.00005130,-0.00000206,-0
 .00000926,-0.00001127,-0.00000046,-0.00000887,-0.00000768,-0.00001472,
 -0.00001646,0.00001064,-0.00002764,0.00000473,-0.00000841,-0.00018787,
 -0.00003520,0.00006654,0.00009782,-0.00000105,-0.00000292,0.00007110,0
 .00004384,-0.00004414,0.00009424,-0.00002565,0.00002981,-0.00026371,0.
 00004662,0.00037136,-0.00024014,0.00002167,-0.00011021,0.00007171,-0.0
 0012652,-0.00010148,0.00032554,-0.00003222,0.00024958,0.00002250,0.000
 22232,-0.00002047,0.00002268,0.00000328,-0.00005517,-0.00001472,-0.000
 02218,-0.00001415,-0.00003017,-0.00000420,-0.00001972,0.00003508,0.000
 01860,0.00001799,0.00020379,-0.00362177,0.00177381,0.00394930,0.000787
 00,-0.00165363,0.00104676,-0.00003426,0.00069470,-0.08832701,-0.060308
 79,-0.00507996,0.01340539,0.02371869,-0.00311957,0.10698981,-0.0000996
 7,-0.00006751,0.00011190,0.00029587,0.00004459,-0.00013820,-0.00012655
 ,0.00005120,-0.00005135,0.00032649,-0.00004087,-0.00006412,-0.00049690
 ,-0.00009668,0.00029774,0.00025002,-0.00003092,-0.00019396,-0.00002565
 ,0.00001347,0.00000864,0.00000916,-0.00003587,0.00000131,-0.00002559,-
 0.00004476,0.00007795,-0.00007016,0.00013677,0.00001507,-0.00084892,-0
 .00023802,0.00053485,0.00038272,0.00001835,-0.00013785,0.00034862,0.00
 025114,-0.00034684,-0.00114888,-0.00050993,0.00000155,0.00476676,0.000
 41431,0.00104290,-0.00046003,-0.00030213,-0.00034961,-0.00011402,-0.00
 011853,-0.00006112,0.00035876,-0.00007000,0.00021496,0.00016637,0.0002
 8235,-0.00004841,0.00025450,0.00026612,-0.00052184,-0.00010858,-0.0001
 0395,-0.00005761,-0.00021699,-0.00010746,-0.00015302,0.00000451,0.0000
 0375,0.00006419,-0.01166733,-0.03043427,0.01445885,0.00713056,0.003146
 63,-0.00508699,-0.00254233,0.00598448,-0.00755589,-0.06063059,-0.32471
 271,-0.02873481,0.01251325,-0.06185349,0.02907768,0.09853073,0.4368184
 7,-0.00008208,-0.00005783,0.00008682,0.00014010,0.00004942,-0.00008953
 ,-0.00004854,-0.00000071,-0.00001137,0.00012386,-0.00005061,-0.0000103
 5,-0.00026443,-0.00005925,0.00020691,0.00016311,0.00003341,-0.00013407
 ,-0.00000916,0.00001347,-0.00001395,-0.00000009,-0.00000278,0.00002170
 ,0.00000711,-0.00000299,0.00005957,-0.00005058,0.00006504,-0.00000278,
 -0.00053466,-0.00000769,0.00021999,0.00027741,-0.00005099,-0.00004128,
 0.00019358,0.00005303,-0.00013854,-0.00099352,-0.00049890,0.00009653,0
 .00397366,-0.00022703,0.00029086,-0.00008904,-0.00015149,-0.00023875,-
 0.00015357,0.00001912,0.00008720,-0.00002358,0.00005595,-0.00009604,0.
 00003404,-0.00008861,-0.00000892,0.00015926,0.00027337,-0.00037475,-0.
 00005586,-0.00005645,-0.00002742,-0.00015410,-0.00007931,-0.00008937,-
 0.00003644,-0.00000495,0.00002294,-0.00693113,-0.02017030,0.00941018,0
 .00353484,0.00081001,-0.00277009,-0.00033882,0.00105604,-0.00189954,-0
 .00627270,-0.03277538,-0.08386808,-0.00151215,0.04637787,0.00352608,0.
 00262811,-0.00283294,0.06818453,0.00008282,-0.00001452,0.00005405,0.00
 011246,0.00001794,-0.00009021,0.00002954,0.00005337,-0.00006310,0.0001
 2171,0.00007993,-0.00005234,-0.00037101,0.00007353,0.00001119,0.000155
 26,-0.00000690,0.00001710,0.00002517,-0.00005345,-0.00004624,0.0000066
 6,-0.00001162,-0.00004877,-0.00004790,-0.00005145,-0.00002393,-0.00006
 564,-0.00007735,-0.00004118,0.00007467,-0.00000246,-0.00018151,-0.0000
 0538,0.00001178,0.00009034,-0.00003901,-0.00000378,0.00009910,0.001045
 00,0.00027160,0.00008827,-0.00407654,-0.00007509,-0.00001591,-0.001045
 61,0.00042045,-0.00029441,0.00049539,-0.00062339,-0.00043488,0.0008226
 8,-0.00094059,0.00029081,0.00001941,0.00080383,0.00003160,-0.00007458,
 -0.00013111,0.00006345,0.00001372,-0.00001982,-0.00000995,-0.00000065,
 0.00003775,0.00000586,0.00015846,0.00007181,0.00003580,-0.03379611,-0.
 01107884,-0.00523698,-0.00300394,0.00368160,0.00966418,0.00875558,-0.0
 0033807,0.00471653,-0.29500333,-0.00932007,0.08063328,-0.06951146,0.02
 121836,-0.01565880,-0.03781190,-0.04164146,0.01143351,0.42484203,-0.00
 003043,-0.00000421,0.00002468,0.00007246,0.00000657,-0.00003813,-0.000
 03749,0.00000813,-0.00001118,0.00009819,-0.00001839,-0.00002225,-0.000
 10897,0.00000576,0.00003923,0.00005319,0.00000872,-0.00004591,-0.00000
 904,0.00000759,0.00000611,0.00000285,-0.00000946,0.00000352,-0.0000068
 2,-0.00001304,0.00002033,-0.00001603,0.00003399,0.00000499,-0.00025264
 ,-0.00006805,0.00016511,0.00011188,0.00000441,-0.00004415,0.00010357,0
 .00007187,-0.00010527,0.00012341,0.00003915,0.00002785,-0.00013020,0.0
 0084145,0.00115170,-0.00078748,-0.00007997,-0.00031164,0.00010516,-0.0
 0021778,-0.00019578,-0.00019971,-0.00110468,-0.00042797,0.00009797,0.0
 0040050,0.00001518,0.00003999,-0.00004778,-0.00002439,-0.00002732,-0.0
 0002519,-0.00002459,-0.00001069,0.00000077,-0.00002430,0.00002220,0.00
 000650,0.00002046,0.00735611,0.00233928,-0.00032593,0.00214234,-0.0003
 5657,-0.00257587,-0.00170925,0.00101318,-0.00176689,-0.00728130,-0.073
 88172,0.00035479,0.02729195,0.00800094,0.00077022,-0.05935106,-0.02040
 872,0.01677966,0.03064923,0.08214790,-0.00009716,-0.00001388,0.0000299
 5,0.00003857,0.00000529,-0.00000517,-0.00007145,-0.00004008,0.00004460
 ,0.00004777,-0.00008391,-0.00001050,0.00004456,-0.00001257,0.00004811,
 0.00003015,0.00005993,-0.00013640,-0.00002078,0.00003870,0.00000630,-0
 .00000747,0.00000454,0.00004438,0.00002869,0.00002328,0.00006691,-0.00
 000544,0.00005651,0.00000698,-0.00048735,0.00001429,0.00025562,0.00024
 375,-0.00005698,-0.00006825,0.00017753,0.00003168,-0.00014546,-0.00051
 926,-0.00018551,0.00002630,0.00232117,0.00049569,0.00096403,-0.0005426
 6,0.00007144,-0.00030346,-0.00010475,-0.00004920,0.00014956,-0.0006200
 4,-0.00093827,-0.00100688,0.00002466,-0.00027990,0.00001487,0.00009334
 ,0.00007716,-0.00011072,-0.00002675,-0.00002598,-0.00002805,-0.0000449
 9,-0.00002125,-0.00002208,-0.00006525,-0.00001292,0.00000350,0.0333234
 2,0.00913062,0.00245410,0.00751055,-0.00391835,-0.00991699,-0.00345063
 ,-0.00071381,-0.00250472,0.08263438,0.00092961,-0.10899577,-0.03496949
 ,0.00456455,0.01513740,0.00536196,0.00811688,0.01234207,-0.08580430,-0
 .01191605,0.09272983,0.00117363,0.00020805,0.00007726,0.00109229,-0.00
 053187,0.00001739,-0.00125169,0.00034441,-0.00059339,0.00313142,0.0011
 7290,-0.00158736,-0.00565193,0.00361235,0.00543599,0.00062103,0.001339
 32,0.00146206,0.00015855,-0.00013913,-0.00021748,0.00014791,-0.0000506
 5,-0.00015117,-0.00021403,-0.00033043,0.00022193,-0.00046470,-0.000621
 69,0.00006736,-0.00084177,-0.00022497,0.00016489,0.00054053,-0.0000322
 8,0.00008227,0.00029595,0.00020258,-0.00010983,-0.01296104,-0.00985015
 ,-0.01588122,-0.14369266,-0.03138027,-0.05993164,-0.03922622,-0.023978
 98,-0.02284163,-0.00632644,0.00090634,0.00592046,0.00250723,0.00065745
 ,-0.00130081,0.00229837,0.00020795,-0.00107450,0.00446757,-0.00204133,
 -0.00110054,-0.00154881,-0.00086585,-0.00122170,-0.00098814,-0.0003275
 4,-0.00083715,0.00030612,0.00028105,0.00056380,-0.08168130,-0.03996550
 ,-0.01535317,-0.01827711,-0.03859247,0.00829407,0.01193022,0.01484360,
 -0.00623069,-0.00664675,-0.00666620,0.01623443,0.00085532,0.00001951,-
 0.00150425,0.00053814,-0.00511466,-0.00511815,0.00809249,0.00168793,-0
 .00504272,0.28161583,-0.00100590,-0.00115475,0.00127733,0.00093513,0.0
 0101922,-0.00135527,0.00090282,0.00019074,-0.00048080,0.00052572,-0.00
 007060,0.00094463,-0.00276172,-0.00514783,0.00386649,0.00349714,-0.000
 91545,-0.00242874,0.00005171,-0.00009890,-0.00018190,0.00009539,-0.000
 16126,-0.00019412,-0.00038017,-0.00038931,-0.00021128,-0.00019317,0.00
 057705,-0.00026212,-0.00209517,-0.00044990,0.00095110,0.00095142,0.000
 01232,-0.00014932,0.00079788,0.00060245,-0.00073558,-0.02605594,-0.008
 86018,-0.02065814,-0.02731998,-0.05598843,-0.01341367,-0.01500806,-0.0
 0472155,-0.00943948,-0.00422836,0.00219828,0.00189708,-0.00120786,0.00
 054418,0.00075138,0.00175446,0.00014490,-0.00146404,0.00190125,0.00961
 030,-0.00639534,0.00037099,-0.00039520,0.00010399,-0.00274154,-0.00198
 974,-0.00226635,0.00010488,0.00004073,0.00059843,-0.04279960,-0.211156
 97,0.02383970,-0.00757953,-0.00875598,0.00521230,-0.00398992,-0.026739
 56,0.01403803,-0.01515915,-0.01365855,0.02957633,-0.00176605,0.0031393
 8,-0.00975789,0.00017400,-0.00825579,-0.00846820,0.00699879,0.00129886
 ,-0.00535152,0.13523052,0.32953154,-0.00125799,-0.00099513,0.00110684,
 0.00033877,0.00104127,-0.00121947,0.00101985,-0.00029695,-0.00024610,0
 .00004286,-0.00089468,0.00086594,-0.00435053,0.00188056,-0.00286193,0.
 00157899,-0.00067857,-0.00255884,0.00000790,-0.00002785,-0.00009075,0.
 00005373,-0.00005919,-0.00002237,-0.00000323,-0.00011418,0.00018001,0.
 00011791,-0.00008306,0.00000444,-0.00148567,0.00001850,0.00049413,0.00
 072099,-0.00016938,-0.00000798,0.00049282,0.00015071,-0.00031682,-0.03
 826592,-0.02001026,-0.02532040,-0.05837064,-0.01520036,-0.10189390,0.0
 0739259,0.00405911,0.00718071,0.00229099,0.00001229,-0.00000340,-0.000
 78474,0.00022343,-0.00010694,-0.00055118,-0.00033069,0.00169521,0.0060
 2481,-0.00561253,-0.00078576,-0.00200547,-0.00081833,-0.00175766,-0.00
 019160,0.00003224,-0.00027893,-0.00022825,0.00013162,0.00028129,-0.008
 56894,0.02991468,-0.08156550,-0.00434456,0.00179499,0.01683552,0.00278
 314,0.02587197,0.00554765,-0.00363084,-0.00985087,0.00882391,-0.000243
 47,-0.00093291,0.00000679,-0.00090530,-0.00768988,-0.00474057,0.000767
 44,-0.00152353,-0.00107004,0.10155552,0.00015696,0.18182492\\0.0000035
 1,0.00000106,-0.00000292,-0.00000148,-0.00000362,0.00000290,-0.0000077
 9,0.00000543,-0.00000144,0.00000029,0.00000183,-0.00000495,-0.00000076
 ,-0.00000201,0.00001034,-0.00000523,0.00000192,0.00000004,-0.00000063,
 0.00000150,-0.00000286,-0.00000177,0.00000068,0.00000071,-0.00000156,0
 .00000063,0.00000172,0.00000137,-0.00000075,-0.00000285,0.00000086,0.0
 0000306,-0.00000077,-0.00000245,0.00000610,-0.00000824,0.00000266,-0.0
 0000231,0.00000046,0.00000523,0.00000415,0.00000250,-0.00000078,-0.000
 00180,0.00000409,0.00000160,-0.00000138,-0.00000375,0.00000109,-0.0000
 0305,0.00000117,0.00000080,-0.00000212,0.00000244,0.00000134,-0.000001
 88,-0.00000088,-0.00000343,0.00000527,0.00000100,0.00000105,-0.0000019
 0,-0.00000137,-0.00000057,-0.00000360,0.00000349,0.00000013,0.00000097
 ,0.00000058,-0.00000254,-0.00002088,-0.00000984,0.00000099,0.00000532,
 0.00000449,-0.00000091,0.00000602,0.00000502,0.00000649,-0.00000005,0.
 00000324,0.00000214,-0.00000234,-0.00000104,0.00000151,0.00000020,-0.0
 0000053,-0.00000248,-0.00000307,0.00000021,0.00000132,0.00000661,-0.00
 000295\\\@
 The archive entry for this job was punched.


 "ANNA, YOU MUSN'T SPEAK OF OXIDIZED MURIATIC ACID
 ANYMORE, FROM NOW ON YOU MUST SAY CHLORINE."
   -- JENS JACOB BERZELIUS, IN 1820, TO HIS COOK, WHO HAD
 COMPLAINED OF THE SMELL OF THE FLASK SHE WAS CLEANING.
 Job cpu time:       0 days  7 hours 49 minutes 32.0 seconds.
 Elapsed time:       0 days  0 hours 29 minutes 29.5 seconds.
 File lengths (MBytes):  RWF=    881 Int=      0 D2E=      0 Chk=     25 Scr=      1
 Normal termination of Gaussian 16 at Fri Dec 31 14:16:28 2021.
