 Entering Gaussian System, Link 0=/software/g16/g16
 Input=cpd.com
 Output=cpd.log
 Initial command:
 /software/g16/l1.exe "/scratch/Gau-998312.inp" -scrdir="/scratch/"
 Default CPUs for threads: 0-15
 Default is to use a total of  16 processors:
                               16 via shared-memory
                                1 via Linda
 Entering Link 1 = /software/g16/l1.exe PID=    998313.
  
 Copyright (c) 1988-2019, Gaussian, Inc.  All Rights Reserved.
  
 This is part of the Gaussian(R) 16 program.  It is based on
 the Gaussian(R) 09 system (copyright 2009, Gaussian, Inc.),
 the Gaussian(R) 03 system (copyright 2003, Gaussian, Inc.),
 the Gaussian(R) 98 system (copyright 1998, Gaussian, Inc.),
 the Gaussian(R) 94 system (copyright 1995, Gaussian, Inc.),
 the Gaussian 92(TM) system (copyright 1992, Gaussian, Inc.),
 the Gaussian 90(TM) system (copyright 1990, Gaussian, Inc.),
 the Gaussian 88(TM) system (copyright 1988, Gaussian, Inc.),
 the Gaussian 86(TM) system (copyright 1986, Carnegie Mellon
 University), and the Gaussian 82(TM) system (copyright 1983,
 Carnegie Mellon University). Gaussian is a federally registered
 trademark of Gaussian, Inc.
  
 This software contains proprietary and confidential information,
 including trade secrets, belonging to Gaussian, Inc.
  
 This software is provided under written license and may be
 used, copied, transmitted, or stored only in accord with that
 written license.
  
 The following legend is applicable only to US Government
 contracts under FAR:
  
                    RESTRICTED RIGHTS LEGEND
  
 Use, reproduction and disclosure by the US Government is
 subject to restrictions as set forth in subparagraphs (a)
 and (c) of the Commercial Computer Software - Restricted
 Rights clause in FAR 52.227-19.
  
 Gaussian, Inc.
 340 Quinnipiac St., Bldg. 40, Wallingford CT 06492
  
  
 ---------------------------------------------------------------
 Warning -- This program may not be used in any manner that
 competes with the business of Gaussian, Inc. or will provide
 assistance to any competitor of Gaussian, Inc.  The licensee
 of this program is prohibited from giving any competitor of
 Gaussian, Inc. access to this program.  By using this program,
 the user acknowledges that Gaussian, Inc. is engaged in the
 business of creating and licensing software in the field of
 computational chemistry and represents and warrants to the
 licensee that it is not a competitor of Gaussian, Inc. and that
 it will not use this program in any manner prohibited above.
 ---------------------------------------------------------------
  

 Cite this work as:
 Gaussian 16, Revision C.01,
 M. J. Frisch, G. W. Trucks, H. B. Schlegel, G. E. Scuseria, 
 M. A. Robb, J. R. Cheeseman, G. Scalmani, V. Barone, 
 G. A. Petersson, H. Nakatsuji, X. Li, M. Caricato, A. V. Marenich, 
 J. Bloino, B. G. Janesko, R. Gomperts, B. Mennucci, H. P. Hratchian, 
 J. V. Ortiz, A. F. Izmaylov, J. L. Sonnenberg, D. Williams-Young, 
 F. Ding, F. Lipparini, F. Egidi, J. Goings, B. Peng, A. Petrone, 
 T. Henderson, D. Ranasinghe, V. G. Zakrzewski, J. Gao, N. Rega, 
 G. Zheng, W. Liang, M. Hada, M. Ehara, K. Toyota, R. Fukuda, 
 J. Hasegawa, M. Ishida, T. Nakajima, Y. Honda, O. Kitao, H. Nakai, 
 T. Vreven, K. Throssell, J. A. Montgomery, Jr., J. E. Peralta, 
 F. Ogliaro, M. J. Bearpark, J. J. Heyd, E. N. Brothers, K. N. Kudin, 
 V. N. Staroverov, T. A. Keith, R. Kobayashi, J. Normand, 
 K. Raghavachari, A. P. Rendell, J. C. Burant, S. S. Iyengar, 
 J. Tomasi, M. Cossi, J. M. Millam, M. Klene, C. Adamo, R. Cammi, 
 J. W. Ochterski, R. L. Martin, K. Morokuma, O. Farkas, 
 J. B. Foresman, and D. J. Fox, Gaussian, Inc., Wallingford CT, 2019.
 
 ******************************************
 Gaussian 16:  ES64L-G16RevC.01  3-Jul-2019
                27-Dec-2021 
 ******************************************
 SetSPE:  set environment variable "MP_BIND" = "yes"
 SetSPE:  set environment variable "MP_BLIST" = "0,1,2,3,4,5,6,7,8,9,10,11,12,13,14,15"
 ----------------------------------------------------------------------
 #N M062X/def2svp OPT FREQ=NoRaman temperature=273.15 Integral(Grid=Ult
 raFine)
 ----------------------------------------------------------------------
 1/18=20,19=15,26=4,38=1,112=273150/1,3;
 2/9=110,12=2,17=6,18=5,40=1/2;
 3/5=43,7=101,11=2,25=1,30=1,71=1,74=-55,75=-5/1,2,3;
 4//1;
 5/5=2,38=5/2;
 6/7=2,8=2,9=2,10=2,28=1/1;
 7//1,2,3,16;
 1/18=20,19=15,26=4/3(2);
 2/9=110/2;
 99//99;
 2/9=110/2;
 3/5=43,7=101,11=2,25=1,30=1,71=1,74=-55,75=-5/1,2,3;
 4/5=5,16=3,69=1/1;
 5/5=2,38=5/2;
 7//1,2,3,16;
 1/18=20,19=15,26=4/3(-5);
 2/9=110/2;
 6/7=2,8=2,9=2,10=2,19=2,28=1/1;
 99/9=1/99;
 ---
 cpd
 ---
 Symbolic Z-matrix:
 Charge =  0 Multiplicity = 1
 C
 C                    1    B1
 C                    2    B2       1    A1
 C                    3    B3       2    A2       1    D1       0
 C                    4    B4       3    A3       2    D2       0
 H                    2    B5       1    A4       5    D3       0
 H                    3    B6       2    A5       1    D4       0
 H                    4    B7       3    A6       2    D5       0
 H                    5    B8       4    A7       3    D6       0
 H                    5    B9       4    A8       3    D7       0
 H                    1    B10      2    A9       3    D8       0
       Variables:
  B1                    1.35536                  
  B2                    1.54051                  
  B3                    1.48139                  
  B4                    1.77555                  
  B5                    1.07                     
  B6                    1.07                     
  B7                    1.07                     
  B8                    1.07                     
  B9                    1.07                     
  B10                   1.07                     
  A1                  108.40667                  
  A2                  102.15558                  
  A3                  107.75033                  
  A4                  125.80712                  
  A5                  125.77683                  
  A6                  122.05914                  
  A7                   97.38986                  
  A8                  134.54312                  
  A9                  125.60075                  
  D1                   30.53005                  
  D2                   -3.08119                  
  D3                  131.66461                  
  D4                 -178.93579                  
  D5                 -178.86071                  
  D6                 -134.04299                  
  D7                  100.84761                  
  D8                  130.21398                  
 

 GradGradGradGradGradGradGradGradGradGradGradGradGradGradGradGradGradGrad
 Berny optimization.
 Initialization pass.
                           ----------------------------
                           !    Initial Parameters    !
                           ! (Angstroms and Degrees)  !
 --------------------------                            --------------------------
 ! Name  Definition              Value          Derivative Info.                !
 --------------------------------------------------------------------------------
 ! R1    R(1,2)                  1.3554         estimate D2E/DX2                !
 ! R2    R(1,5)                  1.5396         estimate D2E/DX2                !
 ! R3    R(1,11)                 1.07           estimate D2E/DX2                !
 ! R4    R(2,3)                  1.5405         estimate D2E/DX2                !
 ! R5    R(2,6)                  1.07           estimate D2E/DX2                !
 ! R6    R(3,4)                  1.4814         estimate D2E/DX2                !
 ! R7    R(3,7)                  1.07           estimate D2E/DX2                !
 ! R8    R(4,5)                  1.7755         estimate D2E/DX2                !
 ! R9    R(4,8)                  1.07           estimate D2E/DX2                !
 ! R10   R(5,9)                  1.07           estimate D2E/DX2                !
 ! R11   R(5,10)                 1.07           estimate D2E/DX2                !
 ! A1    A(2,1,5)              108.7715         estimate D2E/DX2                !
 ! A2    A(2,1,11)             125.6008         estimate D2E/DX2                !
 ! A3    A(5,1,11)             125.6265         estimate D2E/DX2                !
 ! A4    A(1,2,3)              108.4067         estimate D2E/DX2                !
 ! A5    A(1,2,6)              125.8071         estimate D2E/DX2                !
 ! A6    A(3,2,6)              125.7768         estimate D2E/DX2                !
 ! A7    A(2,3,4)              102.1556         estimate D2E/DX2                !
 ! A8    A(2,3,7)              125.7768         estimate D2E/DX2                !
 ! A9    A(4,3,7)              124.5703         estimate D2E/DX2                !
 ! A10   A(3,4,5)              107.7503         estimate D2E/DX2                !
 ! A11   A(3,4,8)              122.0591         estimate D2E/DX2                !
 ! A12   A(5,4,8)              130.0266         estimate D2E/DX2                !
 ! A13   A(1,5,4)               92.3059         estimate D2E/DX2                !
 ! A14   A(1,5,9)              113.0865         estimate D2E/DX2                !
 ! A15   A(1,5,10)             109.9532         estimate D2E/DX2                !
 ! A16   A(4,5,9)               97.3899         estimate D2E/DX2                !
 ! A17   A(4,5,10)             134.5431         estimate D2E/DX2                !
 ! A18   A(9,5,10)             108.4387         estimate D2E/DX2                !
 ! D1    D(5,1,2,3)            -49.4            estimate D2E/DX2                !
 ! D2    D(5,1,2,6)            131.6646         estimate D2E/DX2                !
 ! D3    D(11,1,2,3)           130.214          estimate D2E/DX2                !
 ! D4    D(11,1,2,6)           -48.7214         estimate D2E/DX2                !
 ! D5    D(2,1,5,4)             40.6134         estimate D2E/DX2                !
 ! D6    D(2,1,5,9)            139.6517         estimate D2E/DX2                !
 ! D7    D(2,1,5,10)           -98.9802         estimate D2E/DX2                !
 ! D8    D(11,1,5,4)          -139.0005         estimate D2E/DX2                !
 ! D9    D(11,1,5,9)           -39.9621         estimate D2E/DX2                !
 ! D10   D(11,1,5,10)           81.406          estimate D2E/DX2                !
 ! D11   D(1,2,3,4)             30.5301         estimate D2E/DX2                !
 ! D12   D(1,2,3,7)           -178.9358         estimate D2E/DX2                !
 ! D13   D(6,2,3,4)           -150.5342         estimate D2E/DX2                !
 ! D14   D(6,2,3,7)              0.0            estimate D2E/DX2                !
 ! D15   D(2,3,4,5)             -3.0812         estimate D2E/DX2                !
 ! D16   D(2,3,4,8)           -178.8607         estimate D2E/DX2                !
 ! D17   D(7,3,4,5)           -154.0911         estimate D2E/DX2                !
 ! D18   D(7,3,4,8)             30.1294         estimate D2E/DX2                !
 ! D19   D(3,4,5,1)            -20.4055         estimate D2E/DX2                !
 ! D20   D(3,4,5,9)           -134.043          estimate D2E/DX2                !
 ! D21   D(3,4,5,10)           100.8476         estimate D2E/DX2                !
 ! D22   D(8,4,5,1)            154.9225         estimate D2E/DX2                !
 ! D23   D(8,4,5,9)             41.285          estimate D2E/DX2                !
 ! D24   D(8,4,5,10)           -83.8244         estimate D2E/DX2                !
 --------------------------------------------------------------------------------
 Trust Radius=3.00D-01 FncErr=1.00D-07 GrdErr=1.00D-06 EigMax=2.50D+02 EigMin=1.00D-04
 Number of steps in this run=     63 maximum allowed number of steps=    100.
 GradGradGradGradGradGradGradGradGradGradGradGradGradGradGradGradGradGrad

                          Input orientation:                          
 ---------------------------------------------------------------------
 Center     Atomic      Atomic             Coordinates (Angstroms)
 Number     Number       Type             X           Y           Z
 ---------------------------------------------------------------------
      1          6           0        0.000000    0.000000    0.000000
      2          6           0        0.000000    0.000000    1.355360
      3          6           0        1.461692    0.000000    1.841789
      4          6           0        2.151544    0.735658    0.756699
      5          6           0        0.948643    1.106801   -0.495437
      6          1           0       -0.867611   -0.016123    1.981372
      7          1           0        1.781181   -0.016123    2.862850
      8          1           0        3.207969    0.905192    0.767888
      9          1           0        1.533931    0.810416   -1.340714
     10          1           0        0.386459    1.977443   -0.761580
     11          1           0       -0.561716   -0.664373   -0.622883
 ---------------------------------------------------------------------
                    Distance matrix (angstroms):
                    1          2          3          4          5
     1  C    0.000000
     2  C    1.355360   0.000000
     3  C    2.351325   1.540505   0.000000
     4  C    2.396441   2.351325   1.481387   0.000000
     5  C    1.539607   2.355924   2.636447   1.775545   0.000000
     6  H    2.163063   1.070000   2.333537   3.343695   3.270217
     7  H    3.371762   2.333537   1.070000   2.266764   3.637605
     8  H    3.420539   3.384606   2.241008   1.070000   2.596380
     9  H    2.192540   3.206015   3.284862   2.187733   1.070000
    10  H    2.153981   2.922509   3.441501   2.638697   1.070000
    11  H    1.070000   2.161102   3.257327   3.350390   2.331198
                    6          7          8          9         10
     6  H    0.000000
     7  H    2.791613   0.000000
     8  H    4.351059   2.696926   0.000000
     9  H    4.181725   4.291183   2.693991   0.000000
    10  H    3.615353   4.365323   3.383772   1.736099   0.000000
    11  H    2.701100   4.249674   4.313734   2.661207   2.810243
                   11
    11  H    0.000000
 Stoichiometry    C5H6
 Framework group  C1[X(C5H6)]
 Deg. of freedom    27
 Full point group                 C1      NOp   1
 Largest Abelian subgroup         C1      NOp   1
 Largest concise Abelian subgroup C1      NOp   1
                         Standard orientation:                         
 ---------------------------------------------------------------------
 Center     Atomic      Atomic             Coordinates (Angstroms)
 Number     Number       Type             X           Y           Z
 ---------------------------------------------------------------------
      1          6           0       -0.851900   -0.780103   -0.286172
      2          6           0        0.367472   -1.142515    0.181576
      3          6           0        1.358996    0.000296   -0.108284
      4          6           0        0.484703    1.194647   -0.047892
      5          6           0       -1.178097    0.635041    0.225053
      6          1           0        0.605394   -2.072095    0.655048
      7          1           0        2.402175   -0.001159    0.129781
      8          1           0        0.858342    2.181551   -0.224852
      9          1           0       -1.652518    1.248484   -0.512180
     10          1           0       -1.819325    0.575790    1.079579
     11          1           0       -1.481113   -1.376767   -0.913057
 ---------------------------------------------------------------------
 Rotational constants (GHZ):           8.0514102           7.0071793           4.0411868
 Standard basis: def2SVP (5D, 7F)
 There are   105 symmetry adapted cartesian basis functions of A   symmetry.
 There are   100 symmetry adapted basis functions of A   symmetry.
   100 basis functions,   167 primitive gaussians,   105 cartesian basis functions
    18 alpha electrons       18 beta electrons
       nuclear repulsion energy       150.2937771555 Hartrees.
 NAtoms=   11 NActive=   11 NUniq=   11 SFac= 1.00D+00 NAtFMM=   60 NAOKFM=F Big=F
 Integral buffers will be    131072 words long.
 Raffenetti 2 integral format.
 Two-electron integral symmetry is turned on.
 One-electron integrals computed using PRISM.
   1 Symmetry operations used in ECPInt.
 ECPInt:  NShTT=    1176 NPrTT=    4178 LenC2=    1177 LenP2D=    3660.
 LDataN:  DoStor=T MaxTD1= 4 Len=   56
 NBasis=   100 RedAO= T EigKep=  1.92D-03  NBF=   100
 NBsUse=   100 1.00D-06 EigRej= -1.00D+00 NBFU=   100
 ExpMin= 1.22D-01 ExpMax= 1.24D+03 ExpMxC= 1.86D+02 IAcc=3 IRadAn=         5 AccDes= 0.00D+00
 Harris functional with IExCor= 1009 and IRadAn=       5 diagonalized for initial guess.
 HarFok:  IExCor= 1009 AccDes= 0.00D+00 IRadAn=         5 IDoV= 1 UseB2=F ITyADJ=14
 ICtDFT=  3500011 ScaDFX=  1.000000  1.000000  1.000000  1.000000
 FoFCou: FMM=F IPFlag=           0 FMFlag=      100000 FMFlg1=           0
         NFxFlg=           0 DoJE=T BraDBF=F KetDBF=T FulRan=T
         wScrn=  0.000000 ICntrl=       500 IOpCl=  0 I1Cent=   200000004 NGrid=           0
         NMat0=    1 NMatS0=      1 NMatT0=    0 NMatD0=    1 NMtDS0=    0 NMtDT0=    0
 Petite list used in FoFCou.
 Keep R1 ints in memory in canonical form, NReq=27661261.
 Requested convergence on RMS density matrix=1.00D-08 within 128 cycles.
 Requested convergence on MAX density matrix=1.00D-06.
 Requested convergence on             energy=1.00D-06.
 No special actions if energy rises.
 Integral accuracy reduced to 1.0D-05 until final iterations.
 Initial convergence to 1.0D-05 achieved.  Increase integral accuracy.
 SCF Done:  E(RM062X) =  -193.717024481     A.U. after   16 cycles
            NFock= 16  Conv=0.65D-08     -V/T= 2.0132

 **********************************************************************

            Population analysis using the SCF Density.

 **********************************************************************

 Orbital symmetries:
       Occupied  (A) (A) (A) (A) (A) (A) (A) (A) (A) (A) (A) (A)
                 (A) (A) (A) (A) (A) (A)
       Virtual   (A) (A) (A) (A) (A) (A) (A) (A) (A) (A) (A) (A)
                 (A) (A) (A) (A) (A) (A) (A) (A) (A) (A) (A) (A)
                 (A) (A) (A) (A) (A) (A) (A) (A) (A) (A) (A) (A)
                 (A) (A) (A) (A) (A) (A) (A) (A) (A) (A) (A) (A)
                 (A) (A) (A) (A) (A) (A) (A) (A) (A) (A) (A) (A)
                 (A) (A) (A) (A) (A) (A) (A) (A) (A) (A) (A) (A)
                 (A) (A) (A) (A) (A) (A) (A) (A) (A) (A)
 The electronic state is 1-A.
 Alpha  occ. eigenvalues --  -10.58447 -10.57470 -10.57240 -10.55525 -10.55087
 Alpha  occ. eigenvalues --   -0.91543  -0.78080  -0.76079  -0.63385  -0.59632
 Alpha  occ. eigenvalues --   -0.56865  -0.50638  -0.45542  -0.44467  -0.41902
 Alpha  occ. eigenvalues --   -0.38374  -0.33101  -0.23386
 Alpha virt. eigenvalues --   -0.01844   0.05094   0.11383   0.13387   0.15111
 Alpha virt. eigenvalues --    0.16244   0.17207   0.18925   0.19191   0.25857
 Alpha virt. eigenvalues --    0.31107   0.33525   0.38250   0.42730   0.48886
 Alpha virt. eigenvalues --    0.49898   0.52230   0.55539   0.56061   0.58394
 Alpha virt. eigenvalues --    0.60182   0.61012   0.63180   0.64220   0.68626
 Alpha virt. eigenvalues --    0.70939   0.72077   0.72381   0.73811   0.74280
 Alpha virt. eigenvalues --    0.76182   0.77092   0.77942   0.81095   0.86618
 Alpha virt. eigenvalues --    0.87326   0.97785   0.99352   1.02106   1.30509
 Alpha virt. eigenvalues --    1.37229   1.42827   1.45463   1.51366   1.57011
 Alpha virt. eigenvalues --    1.62350   1.65029   1.70939   1.71918   1.75041
 Alpha virt. eigenvalues --    1.75597   1.76337   1.81983   1.84928   1.88908
 Alpha virt. eigenvalues --    1.90784   1.95538   1.99301   2.01833   2.02669
 Alpha virt. eigenvalues --    2.06960   2.08221   2.11152   2.16314   2.21246
 Alpha virt. eigenvalues --    2.26316   2.30081   2.37160   2.41945   2.42704
 Alpha virt. eigenvalues --    2.47218   2.49544   2.59373   2.63520   2.75031
 Alpha virt. eigenvalues --    2.81807   2.88411   2.91957   2.97250   3.05666
 Alpha virt. eigenvalues --    3.12061   3.31013
          Condensed to atoms (all electrons):
               1          2          3          4          5          6
     1  C    5.041363   0.549726  -0.063791  -0.105771   0.367484  -0.045258
     2  C    0.549726   5.006843   0.335090  -0.073320  -0.105813   0.411227
     3  C   -0.063791   0.335090   4.933471   0.550809  -0.080221  -0.047491
     4  C   -0.105771  -0.073320   0.550809   5.082856   0.308891   0.007920
     5  C    0.367484  -0.105813  -0.080221   0.308891   4.817624   0.010917
     6  H   -0.045258   0.411227  -0.047491   0.007920   0.010917   0.633620
     7  H    0.006476  -0.043092   0.411387  -0.033003   0.007333  -0.002200
     8  H    0.003903   0.007608  -0.034849   0.404110  -0.030142  -0.000304
     9  H   -0.027009   0.013676   0.005183  -0.021910   0.346462  -0.000666
    10  H   -0.016861  -0.007036  -0.001143  -0.001053   0.402628   0.000082
    11  H    0.412774  -0.042120   0.009923   0.007731  -0.044151  -0.005567
               7          8          9         10         11
     1  C    0.006476   0.003903  -0.027009  -0.016861   0.412774
     2  C   -0.043092   0.007608   0.013676  -0.007036  -0.042120
     3  C    0.411387  -0.034849   0.005183  -0.001143   0.009923
     4  C   -0.033003   0.404110  -0.021910  -0.001053   0.007731
     5  C    0.007333  -0.030142   0.346462   0.402628  -0.044151
     6  H   -0.002200  -0.000304  -0.000666   0.000082  -0.005567
     7  H    0.608203  -0.003991  -0.000275  -0.000082  -0.000307
     8  H   -0.003991   0.602332   0.001163  -0.000161  -0.000220
     9  H   -0.000275   0.001163   0.667469  -0.028639  -0.001473
    10  H   -0.000082  -0.000161  -0.028639   0.562192   0.000908
    11  H   -0.000307  -0.000220  -0.001473   0.000908   0.613048
 Mulliken charges:
               1
     1  C   -0.123036
     2  C   -0.052789
     3  C   -0.018369
     4  C   -0.127260
     5  C   -0.001010
     6  H    0.037721
     7  H    0.049552
     8  H    0.050552
     9  H    0.046019
    10  H    0.089168
    11  H    0.049453
 Sum of Mulliken charges =  -0.00000
 Mulliken charges with hydrogens summed into heavy atoms:
               1
     1  C   -0.073583
     2  C   -0.015068
     3  C    0.031183
     4  C   -0.076708
     5  C    0.134177
 Electronic spatial extent (au):  <R**2>=            352.9652
 Charge=             -0.0000 electrons
 Dipole moment (field-independent basis, Debye):
    X=             -0.3092    Y=              0.0812    Z=              0.2789  Tot=              0.4243
 Quadrupole moment (field-independent basis, Debye-Ang):
   XX=            -27.5787   YY=            -29.5525   ZZ=            -32.2537
   XY=             -0.2659   XZ=              0.4727   YZ=             -0.6353
 Traceless Quadrupole moment (field-independent basis, Debye-Ang):
   XX=              2.2163   YY=              0.2424   ZZ=             -2.4587
   XY=             -0.2659   XZ=              0.4727   YZ=             -0.6353
 Octapole moment (field-independent basis, Debye-Ang**2):
  XXX=              1.8297  YYY=              1.0846  ZZZ=              0.9541  XYY=              1.2294
  XXY=              0.7906  XXZ=              1.7973  XZZ=             -3.6176  YZZ=             -1.3660
  YYZ=             -0.2531  XYZ=             -2.5868
 Hexadecapole moment (field-independent basis, Debye-Ang**3):
 XXXX=           -213.1811 YYYY=           -195.7996 ZZZZ=            -53.0280 XXXY=             -1.7466
 XXXZ=              0.4249 YYYX=              3.4867 YYYZ=             -5.7752 ZZZX=              0.5699
 ZZZY=              0.0988 XXYY=            -72.6386 XXZZ=            -45.8683 YYZZ=            -43.3853
 XXYZ=              1.1036 YYXZ=              2.8388 ZZXY=             -0.9876
 N-N= 1.502937771555D+02 E-N=-7.479905447731D+02  KE= 1.911927994864D+02
   1 Symmetry operations used in ECPInt.
 ECPInt:  NShTT=    1176 NPrTT=    4178 LenC2=    1177 LenP2D=    3660.
 LDataN:  DoStor=T MaxTD1= 5 Len=  102
 Calling FoFJK, ICntrl=      2127 FMM=F ISym2X=0 I1Cent= 0 IOpClX= 0 NMat=1 NMatS=1 NMatT=0.
 ***** Axes restored to original set *****
 -------------------------------------------------------------------
 Center     Atomic                   Forces (Hartrees/Bohr)
 Number     Number              X              Y              Z
 -------------------------------------------------------------------
      1        6          -0.005598230    0.042024336    0.002785564
      2        6           0.041065787   -0.024349589    0.008984462
      3        6          -0.005329111    0.113067509   -0.110949097
      4        6          -0.091375986   -0.024867669    0.054166211
      5        6           0.075869947   -0.109360607    0.048788244
      6        1          -0.011981544   -0.027797887    0.012844081
      7        1           0.010059713   -0.013771693    0.012274592
      8        1           0.013637725    0.013366288   -0.005728996
      9        1           0.005977022   -0.003928326   -0.025356291
     10        1          -0.002179569    0.026614802    0.014955791
     11        1          -0.030145754    0.009002836   -0.012764562
 -------------------------------------------------------------------
 Cartesian Forces:  Max     0.113067509 RMS     0.044717845

 GradGradGradGradGradGradGradGradGradGradGradGradGradGradGradGradGradGrad
 Berny optimization.
 FormGI is forming the generalized inverse of G from B-inverse, IUseBI=4.
 Internal  Forces:  Max     0.094508984 RMS     0.022921450
 Search for a local minimum.
 Step number   1 out of a maximum of   63
 All quantities printed in internal units (Hartrees-Bohrs-Radians)
 Mixed Optimization -- RFO/linear search
 Second derivative matrix not updated -- first step.
 ITU=  0
     Eigenvalues ---    0.00473   0.00486   0.01062   0.01107   0.01737
     Eigenvalues ---    0.02240   0.04985   0.06503   0.07855   0.08398
     Eigenvalues ---    0.12658   0.15180   0.15921   0.15996   0.15999
     Eigenvalues ---    0.20011   0.20196   0.27211   0.27638   0.33091
     Eigenvalues ---    0.37230   0.37230   0.37230   0.37230   0.37230
     Eigenvalues ---    0.37230   0.50125
 RFO step:  Lambda=-1.09968065D-01 EMin= 4.73410260D-03
 Linear search not attempted -- first point.
 Maximum step size (   0.300) exceeded in Quadratic search.
    -- Step size scaled by   0.663
 Iteration  1 RMS(Cart)=  0.07349985 RMS(Int)=  0.00338620
 Iteration  2 RMS(Cart)=  0.00335443 RMS(Int)=  0.00214697
 Iteration  3 RMS(Cart)=  0.00000225 RMS(Int)=  0.00214696
 Iteration  4 RMS(Cart)=  0.00000000 RMS(Int)=  0.00214696
 Variable       Old X    -DE/DX   Delta X   Delta X   Delta X     New X
                                 (Linear)    (Quad)   (Total)
    R1        2.56126  -0.00046   0.00000   0.00340   0.00172   2.56298
    R2        2.90944  -0.01847   0.00000  -0.02116  -0.02111   2.88832
    R3        2.02201   0.01767   0.00000   0.02430   0.02430   2.04631
    R4        2.91113  -0.02770   0.00000  -0.04640  -0.04546   2.86567
    R5        2.02201   0.01765   0.00000   0.02428   0.02428   2.04629
    R6        2.79942  -0.09451   0.00000  -0.14688  -0.14598   2.65343
    R7        2.02201   0.01492   0.00000   0.02053   0.02053   2.04254
    R8        3.35529  -0.06305   0.00000  -0.16980  -0.17008   3.18522
    R9        2.02201   0.01552   0.00000   0.02135   0.02135   2.04336
   R10        2.02201   0.02439   0.00000   0.03355   0.03355   2.05556
   R11        2.02201   0.01908   0.00000   0.02625   0.02625   2.04825
    A1        1.89842  -0.01190   0.00000   0.00436  -0.00157   1.89685
    A2        2.19215   0.00903   0.00000   0.00519   0.00694   2.19909
    A3        2.19260   0.00277   0.00000  -0.00995  -0.00757   2.18502
    A4        1.89205  -0.00759   0.00000   0.00071  -0.00431   1.88774
    A5        2.19575   0.00694   0.00000   0.00786   0.00928   2.20503
    A6        2.19522   0.00093   0.00000  -0.00748  -0.00568   2.18954
    A7        1.78295   0.02986   0.00000   0.07250   0.07120   1.85415
    A8        2.19522  -0.01194   0.00000  -0.01632  -0.01861   2.17661
    A9        2.17416  -0.00942   0.00000  -0.00762  -0.00798   2.16618
   A10        1.88060   0.00032   0.00000   0.00041  -0.00099   1.87961
   A11        2.13033   0.00999   0.00000   0.02422   0.02480   2.15513
   A12        2.26939  -0.01060   0.00000  -0.02600  -0.02540   2.24399
   A13        1.61104   0.02148   0.00000   0.07374   0.07137   1.68241
   A14        1.97373   0.00327   0.00000   0.01799   0.01503   1.98876
   A15        1.91905  -0.00558   0.00000  -0.02658  -0.02564   1.89340
   A16        1.69977   0.01611   0.00000   0.06112   0.06221   1.76198
   A17        2.34822  -0.03503   0.00000  -0.11925  -0.12054   2.22768
   A18        1.89261   0.00398   0.00000   0.01059   0.01141   1.90402
    D1       -0.86219   0.05100   0.00000   0.20563   0.20232  -0.65987
    D2        2.29798   0.03507   0.00000   0.14368   0.14056   2.43855
    D3        2.27266   0.03604   0.00000   0.14349   0.14019   2.41286
    D4       -0.85035   0.02012   0.00000   0.08154   0.07844  -0.77191
    D5        0.70884  -0.03136   0.00000  -0.13374  -0.13715   0.57168
    D6        2.43738  -0.00400   0.00000  -0.03272  -0.03291   2.40447
    D7       -1.72753  -0.00066   0.00000  -0.02593  -0.02669  -1.75422
    D8       -2.42602  -0.01643   0.00000  -0.07166  -0.07572  -2.50174
    D9       -0.69747   0.01093   0.00000   0.02937   0.02852  -0.66895
   D10        1.42080   0.01427   0.00000   0.03615   0.03474   1.45554
   D11        0.53285  -0.01840   0.00000  -0.10329  -0.10677   0.42608
   D12       -3.12302  -0.00362   0.00000  -0.01347  -0.01447  -3.13749
   D13       -2.62732  -0.00241   0.00000  -0.04115  -0.04550  -2.67282
   D14        0.00000   0.01238   0.00000   0.04866   0.04680   0.04680
   D15       -0.05378  -0.00008   0.00000   0.01332   0.01390  -0.03988
   D16       -3.12171   0.00417   0.00000   0.03240   0.03380  -3.08791
   D17       -2.68940  -0.01341   0.00000  -0.07116  -0.07329  -2.76269
   D18        0.52586  -0.00915   0.00000  -0.05208  -0.05339   0.47247
   D19       -0.35614   0.01047   0.00000   0.05621   0.05888  -0.29727
   D20       -2.33949   0.00211   0.00000   0.02009   0.01837  -2.32112
   D21        1.76012   0.00452   0.00000   0.02502   0.02468   1.78481
   D22        2.70391   0.00699   0.00000   0.03811   0.04058   2.74449
   D23        0.72056  -0.00137   0.00000   0.00198   0.00007   0.72063
   D24       -1.46301   0.00105   0.00000   0.00692   0.00639  -1.45662
         Item               Value     Threshold  Converged?
 Maximum Force            0.094509     0.000450     NO 
 RMS     Force            0.022921     0.000300     NO 
 Maximum Displacement     0.211976     0.001800     NO 
 RMS     Displacement     0.073807     0.001200     NO 
 Predicted change in Energy=-6.169170D-02
 GradGradGradGradGradGradGradGradGradGradGradGradGradGradGradGradGradGrad

                          Input orientation:                          
 ---------------------------------------------------------------------
 Center     Atomic      Atomic             Coordinates (Angstroms)
 Number     Number       Type             X           Y           Z
 ---------------------------------------------------------------------
      1          6           0       -0.037890    0.023602   -0.000813
      2          6           0        0.001251   -0.045801    1.353114
      3          6           0        1.448194    0.073979    1.790866
      4          6           0        2.114779    0.756579    0.760663
      5          6           0        0.998426    1.044930   -0.468837
      6          1           0       -0.850787   -0.128296    2.016276
      7          1           0        1.784735    0.048100    2.817676
      8          1           0        3.178455    0.950969    0.764700
      9          1           0        1.566096    0.729756   -1.341549
     10          1           0        0.487719    1.973912   -0.694643
     11          1           0       -0.648886   -0.588840   -0.652109
 ---------------------------------------------------------------------
                    Distance matrix (angstroms):
                    1          2          3          4          5
     1  C    0.000000
     2  C    1.356269   0.000000
     3  C    2.328326   1.516450   0.000000
     4  C    2.398143   2.337053   1.404136   0.000000
     5  C    1.528434   2.345967   2.500260   1.685545   0.000000
     6  H    2.180028   1.082847   2.318844   3.339783   3.312377
     7  H    3.356552   2.309670   1.080864   2.200494   3.523226
     8  H    3.433787   3.381480   2.194523   1.081300   2.506585
     9  H    2.206580   3.211142   3.202494   2.172802   1.087754
    10  H    2.135737   2.917053   3.272616   2.499428   1.083890
    11  H    1.082860   2.176806   3.287126   3.382886   2.327323
                    6          7          8          9         10
     6  H    0.000000
     7  H    2.760314   0.000000
     8  H    4.355002   2.640519   0.000000
     9  H    4.225229   4.220380   2.661751   0.000000
    10  H    3.682385   4.210390   3.227407   1.768985   0.000000
    11  H    2.715353   4.285744   4.361982   2.668364   2.803815
                   11
    11  H    0.000000
 Stoichiometry    C5H6
 Framework group  C1[X(C5H6)]
 Deg. of freedom    27
 Full point group                 C1      NOp   1
 Largest Abelian subgroup         C1      NOp   1
 Largest concise Abelian subgroup C1      NOp   1
                         Standard orientation:                         
 ---------------------------------------------------------------------
 Center     Atomic      Atomic             Coordinates (Angstroms)
 Number     Number       Type             X           Y           Z
 ---------------------------------------------------------------------
      1          6           0       -0.960936   -0.696182   -0.221314
      2          6           0        0.249463   -1.192168    0.137013
      3          6           0        1.290224   -0.114616   -0.098185
      4          6           0        0.606161    1.110414   -0.043810
      5          6           0       -1.028838    0.774215    0.190306
      6          1           0        0.442566   -2.170373    0.559370
      7          1           0        2.347634   -0.227540    0.095206
      8          1           0        1.078867    2.066080   -0.223977
      9          1           0       -1.482065    1.421501   -0.557234
     10          1           0       -1.594192    0.847237    1.112184
     11          1           0       -1.729253   -1.226888   -0.769608
 ---------------------------------------------------------------------
 Rotational constants (GHZ):           8.1208895           7.4766553           4.1418569
 Standard basis: def2SVP (5D, 7F)
 There are   105 symmetry adapted cartesian basis functions of A   symmetry.
 There are   100 symmetry adapted basis functions of A   symmetry.
   100 basis functions,   167 primitive gaussians,   105 cartesian basis functions
    18 alpha electrons       18 beta electrons
       nuclear repulsion energy       152.4679072362 Hartrees.
 NAtoms=   11 NActive=   11 NUniq=   11 SFac= 1.00D+00 NAtFMM=   60 NAOKFM=F Big=F
 Integral buffers will be    131072 words long.
 Raffenetti 2 integral format.
 Two-electron integral symmetry is turned on.
 One-electron integrals computed using PRISM.
   1 Symmetry operations used in ECPInt.
 ECPInt:  NShTT=    1176 NPrTT=    4178 LenC2=    1177 LenP2D=    3661.
 LDataN:  DoStor=T MaxTD1= 4 Len=   56
 NBasis=   100 RedAO= T EigKep=  1.48D-03  NBF=   100
 NBsUse=   100 1.00D-06 EigRej= -1.00D+00 NBFU=   100
 Initial guess from the checkpoint file:  "cpd.chk"
 B after Tr=    -0.000000   -0.000000    0.000000
         Rot=    0.998288    0.002934   -0.010553    0.057462 Ang=   6.71 deg.
 ExpMin= 1.22D-01 ExpMax= 1.24D+03 ExpMxC= 1.86D+02 IAcc=3 IRadAn=         5 AccDes= 0.00D+00
 Harris functional with IExCor= 1009 and IRadAn=       5 diagonalized for initial guess.
 HarFok:  IExCor= 1009 AccDes= 0.00D+00 IRadAn=         5 IDoV= 1 UseB2=F ITyADJ=14
 ICtDFT=  3500011 ScaDFX=  1.000000  1.000000  1.000000  1.000000
 FoFCou: FMM=F IPFlag=           0 FMFlag=      100000 FMFlg1=           0
         NFxFlg=           0 DoJE=T BraDBF=F KetDBF=T FulRan=T
         wScrn=  0.000000 ICntrl=       500 IOpCl=  0 I1Cent=   200000004 NGrid=           0
         NMat0=    1 NMatS0=      1 NMatT0=    0 NMatD0=    1 NMtDS0=    0 NMtDT0=    0
 Petite list used in FoFCou.
 Keep R1 ints in memory in canonical form, NReq=27661261.
 Requested convergence on RMS density matrix=1.00D-08 within 128 cycles.
 Requested convergence on MAX density matrix=1.00D-06.
 Requested convergence on             energy=1.00D-06.
 No special actions if energy rises.
 Integral accuracy reduced to 1.0D-05 until final iterations.
 Initial convergence to 1.0D-05 achieved.  Increase integral accuracy.
 SCF Done:  E(RM062X) =  -193.780155348     A.U. after   13 cycles
            NFock= 13  Conv=0.94D-08     -V/T= 2.0128
   1 Symmetry operations used in ECPInt.
 ECPInt:  NShTT=    1176 NPrTT=    4178 LenC2=    1177 LenP2D=    3661.
 LDataN:  DoStor=T MaxTD1= 5 Len=  102
 Calling FoFJK, ICntrl=      2127 FMM=F ISym2X=0 I1Cent= 0 IOpClX= 0 NMat=1 NMatS=1 NMatT=0.
 ***** Axes restored to original set *****
 -------------------------------------------------------------------
 Center     Atomic                   Forces (Hartrees/Bohr)
 Number     Number              X              Y              Z
 -------------------------------------------------------------------
      1        6          -0.002948512    0.024910928    0.006061878
      2        6           0.026607025   -0.013443014    0.001112705
      3        6          -0.011975140    0.077053073   -0.054066850
      4        6          -0.063976549   -0.008326103    0.016388975
      5        6           0.063215908   -0.084023766    0.033457278
      6        1          -0.002539035   -0.024067249    0.004899169
      7        1           0.006834133   -0.013777288    0.004691297
      8        1           0.004177460    0.011240493   -0.003837775
      9        1          -0.001572279   -0.000003451   -0.014709334
     10        1           0.003713797    0.015782652    0.011113881
     11        1          -0.021536807    0.014653724   -0.005111225
 -------------------------------------------------------------------
 Cartesian Forces:  Max     0.084023766 RMS     0.029900292

 GradGradGradGradGradGradGradGradGradGradGradGradGradGradGradGradGradGrad
 Berny optimization.
 Using GEDIIS/GDIIS optimizer.
 FormGI is forming the generalized inverse of G from B-inverse, IUseBI=4.
 Internal  Forces:  Max     0.055442039 RMS     0.015688755
 Search for a local minimum.
 Step number   2 out of a maximum of   63
 All quantities printed in internal units (Hartrees-Bohrs-Radians)
 Mixed Optimization -- RFO/linear search
 Update second derivatives using D2CorX and points    1    2
 DE= -6.31D-02 DEPred=-6.17D-02 R= 1.02D+00
 TightC=F SS=  1.41D+00  RLast= 4.84D-01 DXNew= 5.0454D-01 1.4528D+00
 Trust test= 1.02D+00 RLast= 4.84D-01 DXMaxT set to 5.05D-01
 ITU=  1  0
 Use linear search instead of GDIIS.
 Linear search step of   0.531 exceeds DXMaxT=   0.505 but not scaled.
 Quartic linear search produced a step of  1.77391.
 Iteration  1 RMS(Cart)=  0.10300761 RMS(Int)=  0.02701447
 Iteration  2 RMS(Cart)=  0.03058626 RMS(Int)=  0.01079972
 Iteration  3 RMS(Cart)=  0.00061764 RMS(Int)=  0.01078671
 Iteration  4 RMS(Cart)=  0.00001149 RMS(Int)=  0.01078671
 Iteration  5 RMS(Cart)=  0.00000036 RMS(Int)=  0.01078671
 Variable       Old X    -DE/DX   Delta X   Delta X   Delta X     New X
                                 (Linear)    (Quad)   (Total)
    R1        2.56298  -0.00402   0.00305   0.00000  -0.00432   2.55866
    R2        2.88832  -0.01080  -0.03745   0.00000  -0.03888   2.84944
    R3        2.04631   0.00694   0.04311   0.00000   0.04311   2.08942
    R4        2.86567  -0.01864  -0.08064   0.00000  -0.07777   2.78790
    R5        2.04629   0.00683   0.04307   0.00000   0.04307   2.08935
    R6        2.65343  -0.05024  -0.25896   0.00000  -0.25379   2.39964
    R7        2.04254   0.00691   0.03642   0.00000   0.03642   2.07896
    R8        3.18522  -0.05544  -0.30170   0.00000  -0.30083   2.88439
    R9        2.04336   0.00612   0.03788   0.00000   0.03788   2.08124
   R10        2.05556   0.01098   0.05952   0.00000   0.05952   2.11507
   R11        2.04825   0.00946   0.04656   0.00000   0.04656   2.09482
    A1        1.89685  -0.00782  -0.00278   0.00000  -0.03015   1.86670
    A2        2.19909   0.00667   0.01231   0.00000   0.01754   2.21662
    A3        2.18502   0.00055  -0.01343   0.00000   0.00044   2.18547
    A4        1.88774  -0.00483  -0.00765   0.00000  -0.03086   1.85688
    A5        2.20503   0.00482   0.01646   0.00000   0.02045   2.22548
    A6        2.18954  -0.00043  -0.01007   0.00000   0.00108   2.19062
    A7        1.85415   0.01536   0.12630   0.00000   0.11673   1.97088
    A8        2.17661  -0.00692  -0.03301   0.00000  -0.04156   2.13505
    A9        2.16618  -0.00234  -0.01416   0.00000  -0.01761   2.14857
   A10        1.87961   0.00234  -0.00175   0.00000  -0.00608   1.87353
   A11        2.15513   0.00654   0.04399   0.00000   0.04540   2.20054
   A12        2.24399  -0.00918  -0.04507   0.00000  -0.04332   2.20066
   A13        1.68241   0.01517   0.12661   0.00000   0.11186   1.79428
   A14        1.98876   0.00183   0.02666   0.00000   0.01284   2.00160
   A15        1.89340  -0.00352  -0.04549   0.00000  -0.04094   1.85246
   A16        1.76198   0.01441   0.11035   0.00000   0.11460   1.87658
   A17        2.22768  -0.02750  -0.21382   0.00000  -0.21769   2.00999
   A18        1.90402   0.00169   0.02023   0.00000   0.02488   1.92890
    D1       -0.65987   0.03625   0.35889   0.00000   0.33540  -0.32448
    D2        2.43855   0.02542   0.24935   0.00000   0.23092   2.66947
    D3        2.41286   0.02687   0.24869   0.00000   0.22903   2.64188
    D4       -0.77191   0.01604   0.13915   0.00000   0.12455  -0.64736
    D5        0.57168  -0.02498  -0.24330   0.00000  -0.25724   0.31445
    D6        2.40447  -0.00099  -0.05838   0.00000  -0.05892   2.34555
    D7       -1.75422  -0.00017  -0.04735   0.00000  -0.04864  -1.80286
    D8       -2.50174  -0.01599  -0.13432   0.00000  -0.15415  -2.65589
    D9       -0.66895   0.00799   0.05059   0.00000   0.04416  -0.62479
   D10        1.45554   0.00882   0.06162   0.00000   0.05445   1.50999
   D11        0.42608  -0.01643  -0.18940   0.00000  -0.20343   0.22265
   D12       -3.13749  -0.00208  -0.02567   0.00000  -0.02941   3.11629
   D13       -2.67282  -0.00589  -0.08072   0.00000  -0.10227  -2.77509
   D14        0.04680   0.00846   0.08301   0.00000   0.07176   0.11856
   D15       -0.03988   0.00052   0.02465   0.00000   0.02843  -0.01145
   D16       -3.08791   0.00426   0.05996   0.00000   0.06784  -3.02006
   D17       -2.76269  -0.01228  -0.13002   0.00000  -0.14019  -2.90288
   D18        0.47247  -0.00854  -0.09471   0.00000  -0.10078   0.37169
   D19       -0.29727   0.01068   0.10444   0.00000   0.11841  -0.17885
   D20       -2.32112   0.00152   0.03259   0.00000   0.02365  -2.29747
   D21        1.78481   0.00475   0.04379   0.00000   0.04247   1.82727
   D22        2.74449   0.00785   0.07199   0.00000   0.08526   2.82975
   D23        0.72063  -0.00130   0.00013   0.00000  -0.00951   0.71113
   D24       -1.45662   0.00192   0.01133   0.00000   0.00931  -1.44731
         Item               Value     Threshold  Converged?
 Maximum Force            0.055442     0.000450     NO 
 RMS     Force            0.015689     0.000300     NO 
 Maximum Displacement     0.355458     0.001800     NO 
 RMS     Displacement     0.128686     0.001200     NO 
 Predicted change in Energy=-6.146785D-02
 GradGradGradGradGradGradGradGradGradGradGradGradGradGradGradGradGradGrad

                          Input orientation:                          
 ---------------------------------------------------------------------
 Center     Atomic      Atomic             Coordinates (Angstroms)
 Number     Number       Type             X           Y           Z
 ---------------------------------------------------------------------
      1          6           0       -0.089673    0.071383    0.003293
      2          6           0        0.015848   -0.116388    1.340037
      3          6           0        1.411973    0.200741    1.696067
      4          6           0        2.038750    0.790521    0.762367
      5          6           0        1.075465    0.933241   -0.412990
      6          1           0       -0.800562   -0.316396    2.058304
      7          1           0        1.779521    0.156555    2.732048
      8          1           0        3.113927    1.028969    0.752604
      9          1           0        1.610720    0.583636   -1.331682
     10          1           0        0.666036    1.951984   -0.565855
     11          1           0       -0.779914   -0.445356   -0.688849
 ---------------------------------------------------------------------
                    Distance matrix (angstroms):
                    1          2          3          4          5
     1  C    0.000000
     2  C    1.353986   0.000000
     3  C    2.266529   1.475294   0.000000
     4  C    2.371399   2.290920   1.269836   0.000000
     5  C    1.507858   2.301655   2.257856   1.526353   0.000000
     6  H    2.208801   1.105638   2.300860   3.311556   3.344901
     7  H    3.308662   2.263346   1.100137   2.085366   3.315147
     8  H    3.426585   3.354849   2.114883   1.101344   2.350128
     9  H    2.221688   3.189316   3.058328   2.147336   1.119248
    10  H    2.105157   2.886752   2.956275   2.235512   1.108529
    11  H    1.105673   2.204050   3.302974   3.402688   2.327887
                    6          7          8          9         10
     6  H    0.000000
     7  H    2.708218   0.000000
     8  H    4.340285   2.541641   0.000000
     9  H    4.256329   4.089595   2.608103   0.000000
    10  H    3.765988   3.916577   2.929584   1.830654   0.000000
    11  H    2.750255   4.314573   4.406066   2.680894   2.802345
                   11
    11  H    0.000000
 Stoichiometry    C5H6
 Framework group  C1[X(C5H6)]
 Deg. of freedom    27
 Full point group                 C1      NOp   1
 Largest Abelian subgroup         C1      NOp   1
 Largest concise Abelian subgroup C1      NOp   1
                         Standard orientation:                         
 ---------------------------------------------------------------------
 Center     Atomic      Atomic             Coordinates (Angstroms)
 Number     Number       Type             X           Y           Z
 ---------------------------------------------------------------------
      1          6           0       -1.188124    0.263981   -0.110144
      2          6           0       -0.723114   -0.996631    0.056891
      3          6           0        0.744873   -0.918748   -0.067376
      4          6           0        1.181893    0.272922   -0.029712
      5          6           0       -0.024854    1.195680    0.118713
      6          1           0       -1.294360   -1.888348    0.374621
      7          1           0        1.392737   -1.800274    0.048748
      8          1           0        2.221610    0.588481   -0.209631
      9          1           0        0.078259    2.010222   -0.641948
     10          1           0       -0.168349    1.624943    1.130632
     11          1           0       -2.173943    0.561753   -0.512646
 ---------------------------------------------------------------------
 Rotational constants (GHZ):           8.7511130           8.0698085           4.3853380
 Standard basis: def2SVP (5D, 7F)
 There are   105 symmetry adapted cartesian basis functions of A   symmetry.
 There are   100 symmetry adapted basis functions of A   symmetry.
   100 basis functions,   167 primitive gaussians,   105 cartesian basis functions
    18 alpha electrons       18 beta electrons
       nuclear repulsion energy       157.3666212425 Hartrees.
 NAtoms=   11 NActive=   11 NUniq=   11 SFac= 1.00D+00 NAtFMM=   60 NAOKFM=F Big=F
 Integral buffers will be    131072 words long.
 Raffenetti 2 integral format.
 Two-electron integral symmetry is turned on.
 One-electron integrals computed using PRISM.
   1 Symmetry operations used in ECPInt.
 ECPInt:  NShTT=    1176 NPrTT=    4178 LenC2=    1177 LenP2D=    3675.
 LDataN:  DoStor=T MaxTD1= 4 Len=   56
 NBasis=   100 RedAO= T EigKep=  8.73D-04  NBF=   100
 NBsUse=   100 1.00D-06 EigRej= -1.00D+00 NBFU=   100
 Initial guess from the checkpoint file:  "cpd.chk"
 B after Tr=     0.000000    0.000000   -0.000000
         Rot=    0.911644   -0.003583   -0.015594    0.410669 Ang= -48.53 deg.
 ExpMin= 1.22D-01 ExpMax= 1.24D+03 ExpMxC= 1.86D+02 IAcc=3 IRadAn=         5 AccDes= 0.00D+00
 Harris functional with IExCor= 1009 and IRadAn=       5 diagonalized for initial guess.
 HarFok:  IExCor= 1009 AccDes= 0.00D+00 IRadAn=         5 IDoV= 1 UseB2=F ITyADJ=14
 ICtDFT=  3500011 ScaDFX=  1.000000  1.000000  1.000000  1.000000
 FoFCou: FMM=F IPFlag=           0 FMFlag=      100000 FMFlg1=           0
         NFxFlg=           0 DoJE=T BraDBF=F KetDBF=T FulRan=T
         wScrn=  0.000000 ICntrl=       500 IOpCl=  0 I1Cent=   200000004 NGrid=           0
         NMat0=    1 NMatS0=      1 NMatT0=    0 NMatD0=    1 NMtDS0=    0 NMtDT0=    0
 Petite list used in FoFCou.
 Keep R1 ints in memory in canonical form, NReq=27661261.
 Requested convergence on RMS density matrix=1.00D-08 within 128 cycles.
 Requested convergence on MAX density matrix=1.00D-06.
 Requested convergence on             energy=1.00D-06.
 No special actions if energy rises.
 Integral accuracy reduced to 1.0D-05 until final iterations.
 Initial convergence to 1.0D-05 achieved.  Increase integral accuracy.
 SCF Done:  E(RM062X) =  -193.829038570     A.U. after   14 cycles
            NFock= 14  Conv=0.47D-08     -V/T= 2.0105
   1 Symmetry operations used in ECPInt.
 ECPInt:  NShTT=    1176 NPrTT=    4178 LenC2=    1177 LenP2D=    3675.
 LDataN:  DoStor=T MaxTD1= 5 Len=  102
 Calling FoFJK, ICntrl=      2127 FMM=F ISym2X=0 I1Cent= 0 IOpClX= 0 NMat=1 NMatS=1 NMatT=0.
 ***** Axes restored to original set *****
 -------------------------------------------------------------------
 Center     Atomic                   Forces (Hartrees/Bohr)
 Number     Number              X              Y              Z
 -------------------------------------------------------------------
      1        6          -0.003145202   -0.004621333    0.001709933
      2        6          -0.005029892    0.000953475   -0.002372851
      3        6          -0.051856257   -0.019290649    0.108150699
      4        6           0.040551288    0.045450061   -0.083687395
      5        6           0.027102920   -0.031140016   -0.019994811
      6        1           0.010790708   -0.014700020   -0.007670722
      7        1           0.000835447   -0.011225980   -0.005197535
      8        1          -0.010483986    0.007523407   -0.000227734
      9        1          -0.010734522    0.007909774    0.002677465
     10        1           0.007450046   -0.000997800   -0.000134376
     11        1          -0.005480548    0.020139082    0.006747326
 -------------------------------------------------------------------
 Cartesian Forces:  Max     0.108150699 RMS     0.029683094

 GradGradGradGradGradGradGradGradGradGradGradGradGradGradGradGradGradGrad
 Berny optimization.
 Using GEDIIS/GDIIS optimizer.
 FormGI is forming the generalized inverse of G from B-inverse, IUseBI=4.
 Internal  Forces:  Max     0.101454031 RMS     0.016184871
 Search for a local minimum.
 Step number   3 out of a maximum of   63
 All quantities printed in internal units (Hartrees-Bohrs-Radians)
 Mixed Optimization -- RFO/linear search
 Update second derivatives using D2CorX and points    2    3
 ITU=  0  1  0
 Use linear search instead of GDIIS.
     Eigenvalues ---    0.00412   0.00496   0.00741   0.01156   0.01523
     Eigenvalues ---    0.01747   0.05062   0.06971   0.08146   0.08834
     Eigenvalues ---    0.14752   0.15301   0.15568   0.15776   0.15787
     Eigenvalues ---    0.21644   0.21805   0.27189   0.27908   0.36305
     Eigenvalues ---    0.37209   0.37230   0.37230   0.37230   0.37230
     Eigenvalues ---    0.47445   0.52805
 RFO step:  Lambda=-4.86410128D-02 EMin= 4.12264019D-03
 Quartic linear search produced a step of -0.02406.
 Iteration  1 RMS(Cart)=  0.08853421 RMS(Int)=  0.00503629
 Iteration  2 RMS(Cart)=  0.00538721 RMS(Int)=  0.00253690
 Iteration  3 RMS(Cart)=  0.00001232 RMS(Int)=  0.00253689
 Iteration  4 RMS(Cart)=  0.00000002 RMS(Int)=  0.00253689
 Variable       Old X    -DE/DX   Delta X   Delta X   Delta X     New X
                                 (Linear)    (Quad)   (Total)
    R1        2.55866   0.00780   0.00010   0.00822   0.00659   2.56525
    R2        2.84944   0.00809   0.00094   0.01394   0.01319   2.86263
    R3        2.08942  -0.01022  -0.00104  -0.01994  -0.02098   2.06844
    R4        2.78790  -0.00220   0.00187  -0.00835  -0.00591   2.78199
    R5        2.08935  -0.01029  -0.00104  -0.02014  -0.02118   2.06818
    R6        2.39964   0.10145   0.00611   0.20439   0.21257   2.61222
    R7        2.07896  -0.00416  -0.00088  -0.00782  -0.00869   2.07027
    R8        2.88439  -0.00809   0.00724  -0.07018  -0.06215   2.82224
    R9        2.08124  -0.00860  -0.00091  -0.01681  -0.01772   2.06352
   R10        2.11507  -0.00980  -0.00143  -0.01862  -0.02005   2.09502
   R11        2.09482  -0.00365  -0.00112  -0.00648  -0.00760   2.08721
    A1        1.86670   0.01719   0.00073   0.05506   0.04916   1.91586
    A2        2.21662  -0.00637  -0.00042  -0.02117  -0.01848   2.19814
    A3        2.18547  -0.01059  -0.00001  -0.04031  -0.03776   2.14771
    A4        1.85688   0.00812   0.00074   0.03042   0.02637   1.88325
    A5        2.22548  -0.00302  -0.00049  -0.01015  -0.00790   2.21758
    A6        2.19062  -0.00527  -0.00003  -0.02414  -0.02237   2.16825
    A7        1.97088  -0.02157  -0.00281  -0.04062  -0.04926   1.92162
    A8        2.13505   0.00814   0.00100   0.02539   0.02234   2.15739
    A9        2.14857   0.01566   0.00042   0.05653   0.05297   2.20155
   A10        1.87353  -0.00043   0.00015   0.01304   0.01217   1.88570
   A11        2.20054   0.00370  -0.00109   0.01247   0.01225   2.21279
   A12        2.20066  -0.00347   0.00104  -0.02559  -0.02423   2.17643
   A13        1.79428   0.00228  -0.00269   0.02579   0.01565   1.80992
   A14        2.00160   0.00181  -0.00031   0.02489   0.02100   2.02260
   A15        1.85246  -0.00064   0.00098  -0.01693  -0.01363   1.83883
   A16        1.87658   0.01115  -0.00276   0.09457   0.09236   1.96894
   A17        2.00999  -0.01113   0.00524  -0.10048  -0.09390   1.91609
   A18        1.92890  -0.00361  -0.00060  -0.02863  -0.02800   1.90090
    D1       -0.32448   0.01098  -0.00807   0.21477   0.21056  -0.11392
    D2        2.66947   0.00944  -0.00556   0.18551   0.18309   2.85256
    D3        2.64188   0.01170  -0.00551   0.17314   0.16876   2.81064
    D4       -0.64736   0.01016  -0.00300   0.14388   0.14129  -0.50607
    D5        0.31445  -0.01209   0.00619  -0.19558  -0.19076   0.12369
    D6        2.34555   0.00360   0.00142  -0.05385  -0.05440   2.29114
    D7       -1.80286  -0.00030   0.00117  -0.08675  -0.08679  -1.88965
    D8       -2.65589  -0.01326   0.00371  -0.15707  -0.15249  -2.80838
    D9       -0.62479   0.00243  -0.00106  -0.01534  -0.01613  -0.64092
   D10        1.50999  -0.00147  -0.00131  -0.04824  -0.04852   1.46147
   D11        0.22265  -0.01166   0.00489  -0.17159  -0.16300   0.05965
   D12        3.11629  -0.00025   0.00071   0.01098   0.01120   3.12749
   D13       -2.77509  -0.01036   0.00246  -0.14446  -0.13788  -2.91297
   D14        0.11856   0.00105  -0.00173   0.03811   0.03632   0.15487
   D15       -0.01145   0.00098  -0.00068   0.03367   0.03238   0.02093
   D16       -3.02006   0.00289  -0.00163   0.03638   0.03293  -2.98713
   D17       -2.90288  -0.00925   0.00337  -0.14529  -0.14172  -3.04460
   D18        0.37169  -0.00734   0.00242  -0.14258  -0.14117   0.23052
   D19       -0.17885   0.00902  -0.00285   0.10008   0.09490  -0.08395
   D20       -2.29747   0.00067  -0.00057   0.01508   0.01161  -2.28587
   D21        1.82727   0.00445  -0.00102   0.04870   0.04654   1.87382
   D22        2.82975   0.00781  -0.00205   0.10109   0.09783   2.92759
   D23        0.71113  -0.00054   0.00023   0.01609   0.01454   0.72567
   D24       -1.44731   0.00324  -0.00022   0.04970   0.04947  -1.39784
         Item               Value     Threshold  Converged?
 Maximum Force            0.101454     0.000450     NO 
 RMS     Force            0.016185     0.000300     NO 
 Maximum Displacement     0.290133     0.001800     NO 
 RMS     Displacement     0.089012     0.001200     NO 
 Predicted change in Energy=-3.408659D-02
 GradGradGradGradGradGradGradGradGradGradGradGradGradGradGradGradGradGrad

                          Input orientation:                          
 ---------------------------------------------------------------------
 Center     Atomic      Atomic             Coordinates (Angstroms)
 Number     Number       Type             X           Y           Z
 ---------------------------------------------------------------------
      1          6           0       -0.100691    0.122682    0.030298
      2          6           0        0.022441   -0.163044    1.351636
      3          6           0        1.372269    0.241092    1.778144
      4          6           0        2.041445    0.843487    0.729266
      5          6           0        1.120128    0.882920   -0.445491
      6          1           0       -0.773698   -0.469928    2.037031
      7          1           0        1.740599    0.136575    2.804601
      8          1           0        3.096548    1.123452    0.701477
      9          1           0        1.592667    0.506734   -1.375149
     10          1           0        0.773008    1.917868   -0.613785
     11          1           0       -0.842625   -0.302947   -0.652684
 ---------------------------------------------------------------------
                    Distance matrix (angstroms):
                    1          2          3          4          5
     1  C    0.000000
     2  C    1.357474   0.000000
     3  C    2.288799   1.472165   0.000000
     4  C    2.365769   2.340261   1.382325   0.000000
     5  C    1.514839   2.351302   2.328104   1.493463   0.000000
     6  H    2.197977   1.094432   2.275466   3.370510   3.402894
     7  H    3.329759   2.270009   1.095538   2.212972   3.391918
     8  H    3.416777   3.395278   2.216058   1.091969   2.297743
     9  H    2.233885   3.217075   3.172129   2.177927   1.108636
    10  H    2.097829   2.959126   2.981948   2.137057   1.104506
    11  H    1.094572   2.187513   3.333265   3.397345   2.302522
                    6          7          8          9         10
     6  H    0.000000
     7  H    2.697907   0.000000
     8  H    4.393333   2.689918   0.000000
     9  H    4.265739   4.198715   2.637115   0.000000
    10  H    3.888534   3.974241   2.785650   1.800782   0.000000
    11  H    2.695774   4.338091   4.402891   2.666119   2.746599
                   11
    11  H    0.000000
 Stoichiometry    C5H6
 Framework group  C1[X(C5H6)]
 Deg. of freedom    27
 Full point group                 C1      NOp   1
 Largest Abelian subgroup         C1      NOp   1
 Largest concise Abelian subgroup C1      NOp   1
                         Standard orientation:                         
 ---------------------------------------------------------------------
 Center     Atomic      Atomic             Coordinates (Angstroms)
 Number     Number       Type             X           Y           Z
 ---------------------------------------------------------------------
      1          6           0       -0.504089    1.099556   -0.039888
      2          6           0       -1.253157   -0.031497    0.008615
      3          6           0       -0.336574   -1.183050   -0.024089
      4          6           0        0.975028   -0.746648   -0.015306
      5          6           0        0.965702    0.745166    0.054230
      6          1           0       -2.325670   -0.103940    0.214163
      7          1           0       -0.670909   -2.225551    0.016089
      8          1           0        1.868005   -1.356272   -0.168104
      9          1           0        1.626245    1.214855   -0.702175
     10          1           0        1.282198    1.074528    1.059857
     11          1           0       -0.861326    2.095215   -0.321196
 ---------------------------------------------------------------------
 Rotational constants (GHZ):           8.3972617           8.0881519           4.2494791
 Standard basis: def2SVP (5D, 7F)
 There are   105 symmetry adapted cartesian basis functions of A   symmetry.
 There are   100 symmetry adapted basis functions of A   symmetry.
   100 basis functions,   167 primitive gaussians,   105 cartesian basis functions
    18 alpha electrons       18 beta electrons
       nuclear repulsion energy       155.6195734823 Hartrees.
 NAtoms=   11 NActive=   11 NUniq=   11 SFac= 1.00D+00 NAtFMM=   60 NAOKFM=F Big=F
 Integral buffers will be    131072 words long.
 Raffenetti 2 integral format.
 Two-electron integral symmetry is turned on.
 One-electron integrals computed using PRISM.
   1 Symmetry operations used in ECPInt.
 ECPInt:  NShTT=    1176 NPrTT=    4178 LenC2=    1177 LenP2D=    3673.
 LDataN:  DoStor=T MaxTD1= 4 Len=   56
 NBasis=   100 RedAO= T EigKep=  1.08D-03  NBF=   100
 NBsUse=   100 1.00D-06 EigRej= -1.00D+00 NBFU=   100
 Initial guess from the checkpoint file:  "cpd.chk"
 B after Tr=     0.000000    0.000000   -0.000000
         Rot=    0.895429   -0.001101   -0.003543    0.445189 Ang= -52.87 deg.
 ExpMin= 1.22D-01 ExpMax= 1.24D+03 ExpMxC= 1.86D+02 IAcc=3 IRadAn=         5 AccDes= 0.00D+00
 Harris functional with IExCor= 1009 and IRadAn=       5 diagonalized for initial guess.
 HarFok:  IExCor= 1009 AccDes= 0.00D+00 IRadAn=         5 IDoV= 1 UseB2=F ITyADJ=14
 ICtDFT=  3500011 ScaDFX=  1.000000  1.000000  1.000000  1.000000
 FoFCou: FMM=F IPFlag=           0 FMFlag=      100000 FMFlg1=           0
         NFxFlg=           0 DoJE=T BraDBF=F KetDBF=T FulRan=T
         wScrn=  0.000000 ICntrl=       500 IOpCl=  0 I1Cent=   200000004 NGrid=           0
         NMat0=    1 NMatS0=      1 NMatT0=    0 NMatD0=    1 NMtDS0=    0 NMtDT0=    0
 Petite list used in FoFCou.
 Keep R1 ints in memory in canonical form, NReq=27661261.
 Requested convergence on RMS density matrix=1.00D-08 within 128 cycles.
 Requested convergence on MAX density matrix=1.00D-06.
 Requested convergence on             energy=1.00D-06.
 No special actions if energy rises.
 Integral accuracy reduced to 1.0D-05 until final iterations.
 Initial convergence to 1.0D-05 achieved.  Increase integral accuracy.
 SCF Done:  E(RM062X) =  -193.852740366     A.U. after   13 cycles
            NFock= 13  Conv=0.83D-08     -V/T= 2.0121
   1 Symmetry operations used in ECPInt.
 ECPInt:  NShTT=    1176 NPrTT=    4178 LenC2=    1177 LenP2D=    3673.
 LDataN:  DoStor=T MaxTD1= 5 Len=  102
 Calling FoFJK, ICntrl=      2127 FMM=F ISym2X=0 I1Cent= 0 IOpClX= 0 NMat=1 NMatS=1 NMatT=0.
 ***** Axes restored to original set *****
 -------------------------------------------------------------------
 Center     Atomic                   Forces (Hartrees/Bohr)
 Number     Number              X              Y              Z
 -------------------------------------------------------------------
      1        6           0.006665744   -0.012332699   -0.001742574
      2        6           0.004566818    0.016517339   -0.006472328
      3        6           0.012447804    0.022393121   -0.013657272
      4        6          -0.015602096   -0.022311411    0.026950656
      5        6          -0.001503184   -0.015606230   -0.000871520
      6        1           0.004545493   -0.010179977   -0.004553831
      7        1           0.001414435   -0.002128560   -0.004379131
      8        1          -0.003894880    0.005979194    0.002752876
      9        1          -0.005107989    0.002565010    0.002559160
     10        1           0.002864251    0.002300281   -0.004020421
     11        1          -0.006396396    0.012803934    0.003434384
 -------------------------------------------------------------------
 Cartesian Forces:  Max     0.026950656 RMS     0.010454747

 GradGradGradGradGradGradGradGradGradGradGradGradGradGradGradGradGradGrad
 Berny optimization.
 Using GEDIIS/GDIIS optimizer.
 FormGI is forming the generalized inverse of G from B-inverse, IUseBI=4.
 Internal  Forces:  Max     0.034087313 RMS     0.006013937
 Search for a local minimum.
 Step number   4 out of a maximum of   63
 All quantities printed in internal units (Hartrees-Bohrs-Radians)
 Mixed Optimization -- RFO/linear search
 Update second derivatives using D2CorX and points    3    4
 DE= -2.37D-02 DEPred=-3.41D-02 R= 6.95D-01
 TightC=F SS=  1.41D+00  RLast= 6.28D-01 DXNew= 8.4853D-01 1.8827D+00
 Trust test= 6.95D-01 RLast= 6.28D-01 DXMaxT set to 8.49D-01
 ITU=  1  0  1  0
 Use linear search instead of GDIIS.
     Eigenvalues ---    0.00375   0.00491   0.00699   0.01189   0.01551
     Eigenvalues ---    0.01889   0.05081   0.07111   0.08210   0.09245
     Eigenvalues ---    0.15011   0.15451   0.15692   0.15795   0.15965
     Eigenvalues ---    0.21226   0.22000   0.27329   0.27994   0.35757
     Eigenvalues ---    0.37163   0.37225   0.37230   0.37230   0.37230
     Eigenvalues ---    0.49591   0.62678
 RFO step:  Lambda=-1.35280825D-02 EMin= 3.75139458D-03
 Quartic linear search produced a step of  0.04614.
 Iteration  1 RMS(Cart)=  0.06979710 RMS(Int)=  0.00553087
 Iteration  2 RMS(Cart)=  0.00412343 RMS(Int)=  0.00079463
 Iteration  3 RMS(Cart)=  0.00001949 RMS(Int)=  0.00079435
 Iteration  4 RMS(Cart)=  0.00000001 RMS(Int)=  0.00079435
 Variable       Old X    -DE/DX   Delta X   Delta X   Delta X     New X
                                 (Linear)    (Quad)   (Total)
    R1        2.56525  -0.00745   0.00030  -0.01035  -0.01045   2.55480
    R2        2.86263  -0.00984   0.00061  -0.02870  -0.02851   2.83412
    R3        2.06844  -0.00279  -0.00097  -0.00812  -0.00909   2.05936
    R4        2.78199  -0.00201  -0.00027  -0.00483  -0.00497   2.77702
    R5        2.06818  -0.00330  -0.00098  -0.00941  -0.01039   2.05779
    R6        2.61222  -0.03409   0.00981  -0.06598  -0.05568   2.55654
    R7        2.07027  -0.00342  -0.00040  -0.00860  -0.00900   2.06126
    R8        2.82224   0.00451  -0.00287   0.03793   0.03528   2.85751
    R9        2.06352  -0.00230  -0.00082  -0.00665  -0.00747   2.05605
   R10        2.09502  -0.00519  -0.00093  -0.01384  -0.01476   2.08026
   R11        2.08721   0.00187  -0.00035   0.00505   0.00470   2.09192
    A1        1.91586  -0.00702   0.00227  -0.01658  -0.01643   1.89942
    A2        2.19814   0.00417  -0.00085   0.02372   0.02247   2.22061
    A3        2.14771   0.00322  -0.00174   0.01020   0.00762   2.15533
    A4        1.88325   0.00580   0.00122   0.03219   0.03210   1.91534
    A5        2.21758  -0.00327  -0.00036  -0.01044  -0.01136   2.20622
    A6        2.16825  -0.00218  -0.00103  -0.00986  -0.01158   2.15667
    A7        1.92162  -0.00178  -0.00227  -0.01687  -0.01989   1.90172
    A8        2.15739   0.00231   0.00103   0.01640   0.01603   2.17342
    A9        2.20155  -0.00031   0.00244   0.00545   0.00649   2.20804
   A10        1.88570   0.00481   0.00056   0.01549   0.01494   1.90063
   A11        2.21279  -0.00295   0.00057  -0.00405  -0.00538   2.20741
   A12        2.17643  -0.00165  -0.00112   0.00122  -0.00177   2.17467
   A13        1.80992  -0.00131   0.00072  -0.00287  -0.00301   1.80692
   A14        2.02260  -0.00067   0.00097  -0.00314  -0.00231   2.02030
   A15        1.83883   0.00189  -0.00063   0.01262   0.01175   1.85058
   A16        1.96894   0.00527   0.00426   0.04166   0.04529   2.01423
   A17        1.91609  -0.00293  -0.00433  -0.01750  -0.02076   1.89533
   A18        1.90090  -0.00255  -0.00129  -0.03211  -0.03312   1.86778
    D1       -0.11392   0.00386   0.00972   0.08322   0.09385  -0.02006
    D2        2.85256   0.00592   0.00845   0.15600   0.16458   3.01714
    D3        2.81064   0.00587   0.00779   0.17006   0.17941   2.99005
    D4       -0.50607   0.00793   0.00652   0.24283   0.25014  -0.25593
    D5        0.12369  -0.00406  -0.00880  -0.08268  -0.09034   0.03335
    D6        2.29114   0.00126  -0.00251  -0.03369  -0.03592   2.25523
    D7       -1.88965  -0.00101  -0.00400  -0.06707  -0.07065  -1.96030
    D8       -2.80838  -0.00619  -0.00704  -0.16866  -0.17437  -2.98275
    D9       -0.64092  -0.00087  -0.00074  -0.11967  -0.11995  -0.76088
   D10        1.46147  -0.00314  -0.00224  -0.15305  -0.15469   1.30678
   D11        0.05965  -0.00264  -0.00752  -0.05533  -0.06302  -0.00336
   D12        3.12749   0.00033   0.00052   0.01421   0.01450  -3.14119
   D13       -2.91297  -0.00445  -0.00636  -0.12529  -0.13117  -3.04414
   D14        0.15487  -0.00148   0.00168  -0.05575  -0.05366   0.10122
   D15        0.02093   0.00062   0.00149   0.00324   0.00417   0.02510
   D16       -2.98713  -0.00103   0.00152  -0.09876  -0.09722  -3.08436
   D17       -3.04460  -0.00258  -0.00654  -0.06902  -0.07575  -3.12035
   D18        0.23052  -0.00423  -0.00651  -0.17101  -0.17714   0.05338
   D19       -0.08395   0.00134   0.00438   0.04342   0.04840  -0.03555
   D20       -2.28587  -0.00012   0.00054   0.02395   0.02466  -2.26121
   D21        1.87382   0.00166   0.00215   0.04922   0.05190   1.92572
   D22        2.92759   0.00281   0.00451   0.14223   0.14707   3.07466
   D23        0.72567   0.00135   0.00067   0.12276   0.12332   0.84899
   D24       -1.39784   0.00312   0.00228   0.14803   0.15057  -1.24726
         Item               Value     Threshold  Converged?
 Maximum Force            0.034087     0.000450     NO 
 RMS     Force            0.006014     0.000300     NO 
 Maximum Displacement     0.262705     0.001800     NO 
 RMS     Displacement     0.071241     0.001200     NO 
 Predicted change in Energy=-8.816622D-03
 GradGradGradGradGradGradGradGradGradGradGradGradGradGradGradGradGradGrad

                          Input orientation:                          
 ---------------------------------------------------------------------
 Center     Atomic      Atomic             Coordinates (Angstroms)
 Number     Number       Type             X           Y           Z
 ---------------------------------------------------------------------
      1          6           0       -0.109790    0.141644    0.029235
      2          6           0        0.046534   -0.163299    1.337028
      3          6           0        1.375229    0.269095    1.792148
      4          6           0        2.032251    0.836305    0.754443
      5          6           0        1.127942    0.834740   -0.457481
      6          1           0       -0.714259   -0.570726    2.001087
      7          1           0        1.753187    0.140452    2.807227
      8          1           0        3.054503    1.208759    0.762030
      9          1           0        1.573135    0.428002   -1.378449
     10          1           0        0.828409    1.877848   -0.675749
     11          1           0       -0.925051   -0.163929   -0.626173
 ---------------------------------------------------------------------
                    Distance matrix (angstroms):
                    1          2          3          4          5
     1  C    0.000000
     2  C    1.351943   0.000000
     3  C    2.308547   1.469534   0.000000
     4  C    2.365760   2.298192   1.352862   0.000000
     5  C    1.499752   2.320730   2.332796   1.512130   0.000000
     6  H    2.181984   1.088934   2.261618   3.328239   3.378402
     7  H    3.344835   2.272974   1.090773   2.185409   3.395775
     8  H    3.418841   3.355748   2.182676   1.088016   2.310570
     9  H    2.212648   3.170799   3.180739   2.219623   1.100824
    10  H    2.095620   2.971343   2.996266   2.139976   1.106994
    11  H    1.089764   2.190465   3.365572   3.413533   2.289231
                    6          7          8          9         10
     6  H    0.000000
     7  H    2.691454   0.000000
     8  H    4.348034   2.649063   0.000000
     9  H    4.201297   4.199403   2.717661   0.000000
    10  H    3.942181   4.000610   2.733200   1.774953   0.000000
    11  H    2.666911   4.365070   4.432633   2.675301   2.691828
                   11
    11  H    0.000000
 Stoichiometry    C5H6
 Framework group  C1[X(C5H6)]
 Deg. of freedom    27
 Full point group                 C1      NOp   1
 Largest Abelian subgroup         C1      NOp   1
 Largest concise Abelian subgroup C1      NOp   1
                         Standard orientation:                         
 ---------------------------------------------------------------------
 Center     Atomic      Atomic             Coordinates (Angstroms)
 Number     Number       Type             X           Y           Z
 ---------------------------------------------------------------------
      1          6           0       -1.122498   -0.468998   -0.011297
      2          6           0       -0.004396   -1.228965   -0.004469
      3          6           0        1.183649   -0.364049   -0.003657
      4          6           0        0.786006    0.929010   -0.014332
      5          6           0       -0.725117    0.976946    0.012999
      6          1           0        0.039823   -2.312788    0.091182
      7          1           0        2.212376   -0.726661    0.000969
      8          1           0        1.431027    1.803649   -0.066603
      9          1           0       -1.191399    1.614107   -0.754088
     10          1           0       -1.048181    1.366259    0.997631
     11          1           0       -2.149506   -0.808235   -0.144558
 ---------------------------------------------------------------------
 Rotational constants (GHZ):           8.4507854           8.1791580           4.2698800
 Standard basis: def2SVP (5D, 7F)
 There are   105 symmetry adapted cartesian basis functions of A   symmetry.
 There are   100 symmetry adapted basis functions of A   symmetry.
   100 basis functions,   167 primitive gaussians,   105 cartesian basis functions
    18 alpha electrons       18 beta electrons
       nuclear repulsion energy       156.2656295234 Hartrees.
 NAtoms=   11 NActive=   11 NUniq=   11 SFac= 1.00D+00 NAtFMM=   60 NAOKFM=F Big=F
 Integral buffers will be    131072 words long.
 Raffenetti 2 integral format.
 Two-electron integral symmetry is turned on.
 One-electron integrals computed using PRISM.
   1 Symmetry operations used in ECPInt.
 ECPInt:  NShTT=    1176 NPrTT=    4178 LenC2=    1177 LenP2D=    3673.
 LDataN:  DoStor=T MaxTD1= 4 Len=   56
 NBasis=   100 RedAO= T EigKep=  9.93D-04  NBF=   100
 NBsUse=   100 1.00D-06 EigRej= -1.00D+00 NBFU=   100
 Initial guess from the checkpoint file:  "cpd.chk"
 B after Tr=    -0.000000   -0.000000    0.000000
         Rot=    0.717517    0.001617   -0.001894   -0.696537 Ang=  88.30 deg.
 ExpMin= 1.22D-01 ExpMax= 1.24D+03 ExpMxC= 1.86D+02 IAcc=3 IRadAn=         5 AccDes= 0.00D+00
 Harris functional with IExCor= 1009 and IRadAn=       5 diagonalized for initial guess.
 HarFok:  IExCor= 1009 AccDes= 0.00D+00 IRadAn=         5 IDoV= 1 UseB2=F ITyADJ=14
 ICtDFT=  3500011 ScaDFX=  1.000000  1.000000  1.000000  1.000000
 FoFCou: FMM=F IPFlag=           0 FMFlag=      100000 FMFlg1=           0
         NFxFlg=           0 DoJE=T BraDBF=F KetDBF=T FulRan=T
         wScrn=  0.000000 ICntrl=       500 IOpCl=  0 I1Cent=   200000004 NGrid=           0
         NMat0=    1 NMatS0=      1 NMatT0=    0 NMatD0=    1 NMtDS0=    0 NMtDT0=    0
 Petite list used in FoFCou.
 Keep R1 ints in memory in canonical form, NReq=27661261.
 Requested convergence on RMS density matrix=1.00D-08 within 128 cycles.
 Requested convergence on MAX density matrix=1.00D-06.
 Requested convergence on             energy=1.00D-06.
 No special actions if energy rises.
 Integral accuracy reduced to 1.0D-05 until final iterations.
 Initial convergence to 1.0D-05 achieved.  Increase integral accuracy.
 SCF Done:  E(RM062X) =  -193.861029263     A.U. after   13 cycles
            NFock= 13  Conv=0.26D-08     -V/T= 2.0116
   1 Symmetry operations used in ECPInt.
 ECPInt:  NShTT=    1176 NPrTT=    4178 LenC2=    1177 LenP2D=    3673.
 LDataN:  DoStor=T MaxTD1= 5 Len=  102
 Calling FoFJK, ICntrl=      2127 FMM=F ISym2X=0 I1Cent= 0 IOpClX= 0 NMat=1 NMatS=1 NMatT=0.
 ***** Axes restored to original set *****
 -------------------------------------------------------------------
 Center     Atomic                   Forces (Hartrees/Bohr)
 Number     Number              X              Y              Z
 -------------------------------------------------------------------
      1        6           0.008064002   -0.012060776    0.001824143
      2        6          -0.003958742    0.007709779    0.000300952
      3        6           0.000995377    0.003301169   -0.006351142
      4        6          -0.005259905   -0.006749581   -0.001627304
      5        6           0.000259466    0.004094681    0.007641295
      6        1           0.000147723   -0.005228907   -0.001402835
      7        1           0.000093217    0.000310614   -0.000834982
      8        1          -0.000192823    0.002882459    0.000082086
      9        1           0.000140336   -0.001075666    0.000884255
     10        1           0.003286845    0.001269672   -0.003002817
     11        1          -0.003575497    0.005546557    0.002486349
 -------------------------------------------------------------------
 Cartesian Forces:  Max     0.012060776 RMS     0.004278022

 GradGradGradGradGradGradGradGradGradGradGradGradGradGradGradGradGradGrad
 Berny optimization.
 Using GEDIIS/GDIIS optimizer.
 FormGI is forming the generalized inverse of G from B-inverse, IUseBI=4.
 Internal  Forces:  Max     0.007365913 RMS     0.001957149
 Search for a local minimum.
 Step number   5 out of a maximum of   63
 All quantities printed in internal units (Hartrees-Bohrs-Radians)
 Mixed Optimization -- RFO/linear search
 Update second derivatives using D2CorX and points    4    5
 DE= -8.29D-03 DEPred=-8.82D-03 R= 9.40D-01
 TightC=F SS=  1.41D+00  RLast= 6.02D-01 DXNew= 1.4270D+00 1.8062D+00
 Trust test= 9.40D-01 RLast= 6.02D-01 DXMaxT set to 1.43D+00
 ITU=  1  1  0  1  0
 Use linear search instead of GDIIS.
     Eigenvalues ---    0.00384   0.00473   0.00718   0.01114   0.01352
     Eigenvalues ---    0.01845   0.05378   0.07182   0.08114   0.09317
     Eigenvalues ---    0.15471   0.15886   0.15932   0.16000   0.16526
     Eigenvalues ---    0.21325   0.22963   0.27397   0.28200   0.35738
     Eigenvalues ---    0.37122   0.37226   0.37230   0.37230   0.37266
     Eigenvalues ---    0.50100   0.57570
 RFO step:  Lambda=-3.34076469D-03 EMin= 3.84177926D-03
 Quartic linear search produced a step of  0.31918.
 Iteration  1 RMS(Cart)=  0.04536723 RMS(Int)=  0.00506745
 Iteration  2 RMS(Cart)=  0.00291054 RMS(Int)=  0.00141164
 Iteration  3 RMS(Cart)=  0.00001493 RMS(Int)=  0.00141153
 Iteration  4 RMS(Cart)=  0.00000001 RMS(Int)=  0.00141153
 Variable       Old X    -DE/DX   Delta X   Delta X   Delta X     New X
                                 (Linear)    (Quad)   (Total)
[...]
    R4        2.77835  -0.00001   0.00000   0.00002   0.00002   2.77837
    R5        2.05950  -0.00000   0.00000  -0.00001  -0.00001   2.05949
    R6        2.54612  -0.00005   0.00000  -0.00010  -0.00010   2.54602
    R7        2.05949   0.00000   0.00000  -0.00000  -0.00000   2.05949
    R8        2.83572  -0.00002   0.00000  -0.00010  -0.00010   2.83563
    R9        2.05841  -0.00001   0.00000  -0.00003  -0.00003   2.05838
   R10        2.08705  -0.00000   0.00000  -0.00000  -0.00000   2.08705
   R11        2.08706  -0.00000   0.00000  -0.00001  -0.00001   2.08705
    A1        1.90576  -0.00001   0.00000  -0.00005  -0.00005   1.90571
    A2        2.20929   0.00004   0.00000   0.00040   0.00040   2.20970
    A3        2.16813  -0.00003   0.00000  -0.00035  -0.00035   2.16777
    A4        1.90492   0.00001   0.00000   0.00004   0.00004   1.90496
    A5        2.20112   0.00002   0.00000   0.00020   0.00020   2.20132
    A6        2.17715  -0.00002   0.00000  -0.00024  -0.00024   2.17691
    A7        1.90502  -0.00001   0.00000  -0.00005  -0.00005   1.90497
    A8        2.17703  -0.00001   0.00000  -0.00014  -0.00014   2.17688
    A9        2.20114   0.00002   0.00000   0.00020   0.00020   2.20134
   A10        1.90567   0.00002   0.00000   0.00006   0.00006   1.90574
   A11        2.20954  -0.00000   0.00000   0.00005   0.00005   2.20959
   A12        2.16797  -0.00002   0.00000  -0.00011  -0.00011   2.16786
   A13        1.80340  -0.00001   0.00000   0.00000   0.00000   1.80340
   A14        1.95352  -0.00001   0.00000  -0.00028  -0.00028   1.95325
   A15        1.95292   0.00002   0.00000   0.00033   0.00033   1.95325
   A16        1.95306   0.00002   0.00000   0.00017   0.00017   1.95322
   A17        1.95330  -0.00001   0.00000  -0.00007  -0.00007   1.95322
   A18        1.85062  -0.00001   0.00000  -0.00014  -0.00014   1.85049
    D1       -0.00047   0.00002   0.00000   0.00047   0.00047   0.00000
    D2        3.14116   0.00001   0.00000   0.00043   0.00043   3.14159
    D3       -3.14128   0.00000   0.00000  -0.00031  -0.00031   3.14159
    D4        0.00036  -0.00001   0.00000  -0.00036  -0.00036  -0.00000
    D5        0.00043  -0.00001   0.00000  -0.00043  -0.00043   0.00000
    D6        2.10479   0.00000   0.00000  -0.00037  -0.00037   2.10442
    D7       -2.10391  -0.00000   0.00000  -0.00051  -0.00051  -2.10442
    D8        3.14126   0.00000   0.00000   0.00034   0.00034  -3.14159
    D9       -1.03757   0.00001   0.00000   0.00040   0.00040  -1.03717
   D10        1.03692   0.00001   0.00000   0.00025   0.00025   1.03717
   D11        0.00034  -0.00002   0.00000  -0.00034  -0.00034  -0.00000
   D12       -3.14107  -0.00001   0.00000  -0.00052  -0.00052   3.14159
   D13       -3.14130  -0.00001   0.00000  -0.00029  -0.00029  -3.14159
   D14        0.00048  -0.00000   0.00000  -0.00048  -0.00048   0.00000
   D15       -0.00005   0.00001   0.00000   0.00005   0.00005   0.00000
   D16        3.14067   0.00002   0.00000   0.00093   0.00093  -3.14159
   D17        3.14135   0.00000   0.00000   0.00024   0.00024  -3.14159
   D18       -0.00112   0.00002   0.00000   0.00112   0.00112  -0.00000
   D19       -0.00022   0.00000   0.00000   0.00022   0.00022  -0.00000
   D20       -2.10490   0.00001   0.00000   0.00046   0.00046  -2.10444
   D21        2.10386   0.00001   0.00000   0.00057   0.00057   2.10444
   D22       -3.14096  -0.00001   0.00000  -0.00063  -0.00063   3.14159
   D23        1.03755  -0.00000   0.00000  -0.00039  -0.00039   1.03716
   D24       -1.03688  -0.00000   0.00000  -0.00028  -0.00028  -1.03716
         Item               Value     Threshold  Converged?
 Maximum Force            0.000054     0.000450     YES
 RMS     Force            0.000016     0.000300     YES
 Maximum Displacement     0.000875     0.001800     YES
 RMS     Displacement     0.000295     0.001200     YES
 Predicted change in Energy=-8.875310D-08
 Optimization completed.
    -- Stationary point found.
                           ----------------------------
                           !   Optimized Parameters   !
                           ! (Angstroms and Degrees)  !
 --------------------------                            --------------------------
 ! Name  Definition              Value          Derivative Info.                !
 --------------------------------------------------------------------------------
 ! R1    R(1,2)                  1.3473         -DE/DX =    0.0                 !
 ! R2    R(1,5)                  1.5006         -DE/DX =    0.0                 !
 ! R3    R(1,11)                 1.0893         -DE/DX =    0.0                 !
 ! R4    R(2,3)                  1.4702         -DE/DX =    0.0                 !
 ! R5    R(2,6)                  1.0898         -DE/DX =    0.0                 !
 ! R6    R(3,4)                  1.3474         -DE/DX =   -0.0001              !
 ! R7    R(3,7)                  1.0898         -DE/DX =    0.0                 !
 ! R8    R(4,5)                  1.5006         -DE/DX =    0.0                 !
 ! R9    R(4,8)                  1.0893         -DE/DX =    0.0                 !
 ! R10   R(5,9)                  1.1044         -DE/DX =    0.0                 !
 ! R11   R(5,10)                 1.1044         -DE/DX =    0.0                 !
 ! A1    A(2,1,5)              109.1922         -DE/DX =    0.0                 !
 ! A2    A(2,1,11)             126.5832         -DE/DX =    0.0                 !
 ! A3    A(5,1,11)             124.2246         -DE/DX =    0.0                 !
 ! A4    A(1,2,3)              109.1438         -DE/DX =    0.0                 !
 ! A5    A(1,2,6)              126.1146         -DE/DX =    0.0                 !
 ! A6    A(3,2,6)              124.7415         -DE/DX =    0.0                 !
 ! A7    A(2,3,4)              109.1497         -DE/DX =    0.0                 !
 ! A8    A(2,3,7)              124.7344         -DE/DX =    0.0                 !
 ! A9    A(4,3,7)              126.1159         -DE/DX =    0.0                 !
 ! A10   A(3,4,5)              109.1871         -DE/DX =    0.0                 !
 ! A11   A(3,4,8)              126.5972         -DE/DX =    0.0                 !
 ! A12   A(5,4,8)              124.2157         -DE/DX =    0.0                 !
 ! A13   A(1,5,4)              103.3272         -DE/DX =    0.0                 !
 ! A14   A(1,5,9)              111.9285         -DE/DX =    0.0                 !
 ! A15   A(1,5,10)             111.894          -DE/DX =    0.0                 !
 ! A16   A(4,5,9)              111.9019         -DE/DX =    0.0                 !
 ! A17   A(4,5,10)             111.9156         -DE/DX =    0.0                 !
 ! A18   A(9,5,10)             106.033          -DE/DX =    0.0                 !
 ! D1    D(5,1,2,3)             -0.0272         -DE/DX =    0.0                 !
 ! D2    D(5,1,2,6)            179.9753         -DE/DX =    0.0                 !
 ! D3    D(11,1,2,3)           180.0179         -DE/DX =    0.0                 !
 ! D4    D(11,1,2,6)             0.0205         -DE/DX =    0.0                 !
 ! D5    D(2,1,5,4)              0.0246         -DE/DX =    0.0                 !
 ! D6    D(2,1,5,9)            120.5956         -DE/DX =    0.0                 !
 ! D7    D(2,1,5,10)          -120.5451         -DE/DX =    0.0                 !
 ! D8    D(11,1,5,4)          -180.0192         -DE/DX =    0.0                 !
 ! D9    D(11,1,5,9)           -59.4482         -DE/DX =    0.0                 !
 ! D10   D(11,1,5,10)           59.411          -DE/DX =    0.0                 !
 ! D11   D(1,2,3,4)              0.0193         -DE/DX =    0.0                 !
 ! D12   D(1,2,3,7)            180.03           -DE/DX =    0.0                 !
 ! D13   D(6,2,3,4)           -179.9832         -DE/DX =    0.0                 !
 ! D14   D(6,2,3,7)              0.0275         -DE/DX =    0.0                 !
 ! D15   D(2,3,4,5)             -0.0028         -DE/DX =    0.0                 !
 ! D16   D(2,3,4,8)           -180.0531         -DE/DX =    0.0                 !
 ! D17   D(7,3,4,5)           -180.0137         -DE/DX =    0.0                 !
 ! D18   D(7,3,4,8)             -0.064          -DE/DX =    0.0                 !
 ! D19   D(3,4,5,1)             -0.0125         -DE/DX =    0.0                 !
 ! D20   D(3,4,5,9)           -120.6017         -DE/DX =    0.0                 !
 ! D21   D(3,4,5,10)           120.5425         -DE/DX =    0.0                 !
 ! D22   D(8,4,5,1)            180.0363         -DE/DX =    0.0                 !
 ! D23   D(8,4,5,9)             59.4471         -DE/DX =    0.0                 !
 ! D24   D(8,4,5,10)           -59.4087         -DE/DX =    0.0                 !
 --------------------------------------------------------------------------------
 GradGradGradGradGradGradGradGradGradGradGradGradGradGradGradGradGradGrad


 ----------------------------------------------------------------------

 Electric dipole moment (input orientation):
 (Debye = 10**-18 statcoulomb cm , SI units = C m)
                  (au)            (Debye)         (10**-30 SI)
   Tot        0.202101D+00      0.513689D+00      0.171348D+01
   x          0.375122D-01      0.953466D-01      0.318042D+00
   y          0.743992D-01      0.189104D+00      0.630783D+00
   z         -0.184126D+00     -0.468001D+00     -0.156108D+01

 Dipole polarizability, Alpha (input orientation).
 (esu units = cm**3 , SI units = C**2 m**2 J**-1)
 Alpha(0;0):
               (au)            (10**-24 esu)      (10**-40 SI)
   iso        0.482633D+02      0.715189D+01      0.795755D+01
   aniso      0.297059D+02      0.440196D+01      0.489784D+01
   xx         0.510802D+02      0.756930D+01      0.842198D+01
   yx         0.921482D+01      0.136550D+01      0.151932D+01
   yy         0.355005D+02      0.526063D+01      0.585324D+01
   zx         0.161633D+01      0.239515D+00      0.266496D+00
   zy        -0.847044D+01     -0.125519D+01     -0.139659D+01
   zz         0.582093D+02      0.862573D+01      0.959742D+01

 ----------------------------------------------------------------------

 1\1\GINC-CHEM005\Freq\RM062X\def2SVP\C5H6\NML64\27-Dec-2021\0\\#N Geom
 =AllCheck Guess=TCheck SCRF=Check GenChk RM062X/def2SVP Freq\\cpd\\0,1
 \C,-0.1151141417,0.1572541608,0.0426841681\C,0.046739969,-0.1763157375
 ,1.3380059372\C,1.3757771598,0.2639384076,1.7868259881\C,2.0126971004,
 0.8625304604,0.7614605359\C,1.1223290335,0.8509764779,-0.4463948192\H,
 -0.6818148954,-0.6901162064,1.9648785507\H,1.7701211152,0.1216504372,2
 .7928033418\H,3.0126482839,1.2940487845,0.7811767121\H,1.5861185664,0.
 3175640264,-1.2949903389\H,0.9062657016,1.8715572271,-0.8090112389\H,-
 0.9936763583,-0.0341977103,-0.5720948499\\Version=ES64L-G16RevC.01\Sta
 te=1-A\HF=-193.8635581\RMSD=6.625e-09\RMSF=2.790e-05\ZeroPoint=0.09315
 71\Thermal=0.0967246\ETot=-193.7668334\HTot=-193.7659684\GTot=-193.794
 3796\Dipole=0.0375122,0.0743992,-0.1841256\DipoleDeriv=-0.1072236,0.07
 50919,-0.0505555,0.0771297,-0.174488,-0.1108691,-0.0580368,-0.113828,0
 .0399104,0.1083153,0.1299152,-0.0678547,0.1302653,-0.0756509,-0.025911
 9,-0.0690153,-0.0263916,-0.1521499,0.0009506,0.0069257,0.1755527,0.006
 5592,-0.1454701,0.0246748,0.1765755,0.0252578,0.0253888,-0.1351928,0.0
 456665,0.0048748,0.0437989,-0.1923323,-0.1006369,0.0121929,-0.0974139,
 0.0855876,-0.0449569,-0.0929975,0.0091027,-0.0930375,0.0816684,0.12387
 8,0.0091885,0.1236018,-0.2213194,0.0079995,-0.0762019,0.0470401,-0.075
 8715,0.0990351,0.053422,0.0461382,0.0529711,0.0437099,0.0577561,-0.018
 8419,-0.0670521,-0.0191869,0.1313285,0.0292764,-0.0659522,0.0297232,-0
 .0384577,-0.0247326,-0.0664901,-0.0200506,-0.0653353,0.1096819,0.01116
 85,-0.0244746,0.0092051,0.0781144,0.0616326,0.0187467,0.0515905,0.0284
 231,0.073885,-0.0730141,0.042098,-0.044338,0.0042889,0.0842929,0.02486
 ,-0.0213999,0.0151197,-0.0279733,0.0664117,-0.0118896,0.0377999,0.0835
 125,-0.008841,-0.0466745,-0.061248,-0.0478647,0.1203158,0.0016006,-0.0
 568248,0.0034125,0.0514145\Polar=51.0801661,9.2148198,35.5005115,1.616
 3254,-8.4704369,58.2093337\Quadrupole=0.2207023,-1.5979431,1.3772409,1
 .1251787,0.1265246,-1.1394735\PG=C01 [X(C5H6)]\NImag=0\\0.59186775,0.1
 3875921,0.23975157,0.18419445,-0.11744775,0.77616241,-0.10238827,-0.00
 394450,-0.03897011,0.55395864,-0.00084192,-0.10160214,0.11446819,0.194
 74095,0.28645352,-0.04890362,0.11013580,-0.48680984,-0.03593718,-0.216
 88160,0.77821111,-0.01664131,0.00437413,-0.05286145,-0.21726155,-0.057
 03719,-0.03644114,0.52259427,-0.00316453,0.01392810,-0.01329666,-0.051
 47290,-0.08318495,0.00043161,0.15900308,0.26635955,-0.02878427,-0.0027
 6510,-0.02022203,-0.05428100,-0.00736241,-0.11292780,0.03483213,-0.202
 29158,0.82962400,-0.04431599,-0.01795864,-0.01531341,-0.04180791,-0.02
 442462,0.00412099,-0.18446988,-0.09817363,0.14790759,0.69863224,-0.018
 90757,-0.00066577,0.00047060,-0.03195325,-0.00240004,-0.00132728,-0.09
 510016,-0.15517451,0.15388090,0.26171637,0.30967976,-0.01229808,0.0018
 0600,-0.01523411,0.02823180,0.00919753,0.02121167,0.13797652,0.1495438
 0,-0.35121690,-0.05927610,-0.16870665,0.59953745,-0.18160610,-0.060456
 76,0.04216031,0.00034191,-0.00824538,0.01874975,0.00465103,-0.00040850
 ,-0.00030633,-0.13459134,-0.00106525,-0.08215232,0.46012453,-0.0550114
 4,-0.10419656,0.02158603,-0.00532215,-0.00336799,0.02188352,-0.0033160
 5,-0.00058438,0.01578520,-0.00654026,-0.07361641,-0.00852000,-0.021696
 07,0.53465992,0.02466299,0.01393010,-0.08351750,0.00946929,0.01783234,
 -0.03803777,0.00896140,0.01983097,-0.04514119,-0.06463187,-0.00086585,
 -0.16100670,-0.03611754,-0.02815314,0.57505094,0.00820762,0.00292883,-
 0.00540141,-0.18869601,-0.10050107,0.11239597,-0.00583509,-0.00801772,
 0.01634159,-0.00403479,-0.00211444,-0.00141868,0.00138913,-0.00367098,
 -0.00294987,0.18899395,-0.00540488,0.00270043,0.00095832,-0.09997262,-
 0.10905607,0.08498482,-0.00058855,-0.00075116,0.00427879,-0.00149732,0
 .00106543,0.00031698,-0.00392935,0.00911297,0.00345729,0.10919177,0.10
 217056,0.02131446,0.01263329,-0.00527533,0.11070542,0.08423915,-0.1538
 8489,-0.00746423,-0.00611567,0.00999356,-0.00338931,-0.00054392,-0.001
 18426,-0.00213963,0.00380293,-0.00328273,-0.12113405,-0.09280228,0.153
 36927,-0.00466294,-0.00221641,-0.00196553,0.00008608,0.00620433,-0.020
 91742,-0.09488914,0.00756438,-0.10253419,0.01126761,-0.00190868,0.0143
 6675,0.00001032,-0.00550555,0.00099600,0.00046585,0.00018952,0.0009396
 7,0.08737361,-0.00283304,0.00065772,-0.00024298,-0.00123495,0.00310026
 ,-0.00894950,0.00703377,-0.04811227,0.03956507,0.00644133,0.00468654,0
 .01116820,-0.00525772,0.00821242,0.00446811,0.00058495,-0.00047170,0.0
 0027630,-0.00730530,0.03614530,0.00000688,0.00061906,-0.00014868,0.002
 88586,0.00145149,0.00023530,-0.10083981,0.04028550,-0.30857818,-0.0123
 5268,-0.00048918,-0.01032736,0.00018515,0.00411613,-0.00100326,-0.0003
 2533,-0.00027705,-0.00021042,0.10986465,-0.04438730,0.32094982,-0.0003
 3165,0.00042175,-0.00150809,0.00040237,-0.00344533,0.00113873,-0.00415
 456,-0.00269634,-0.00586416,-0.30651311,-0.11812598,-0.00673859,-0.005
 94361,-0.00351976,0.00505085,-0.00016320,-0.00022777,-0.00026063,-0.00
 055369,0.00195019,0.00086102,0.31731043,0.00067762,-0.00017572,0.00081
 581,-0.00342501,0.00480260,0.00371470,-0.01092611,0.00238544,-0.003128
 39,-0.11729560,-0.08440122,0.00419670,0.00375163,0.00020907,-0.0002377
 8,-0.00058367,0.00034626,-0.00018426,0.00230215,-0.00416028,-0.0014500
 0,0.12668227,0.07883452,-0.00233295,0.00045290,-0.00492648,0.00109278,
 0.00369640,-0.00284379,0.02055746,0.00843455,0.00796381,-0.00951701,0.
 00297229,-0.05457298,-0.01818127,-0.01039908,0.00632031,0.00087947,0.0
 0031413,0.00076620,-0.00028451,-0.00194877,0.00021529,0.00786486,-0.00
 382622,0.04544879,-0.00868188,0.01339255,0.02060570,-0.00349140,-0.003
 76705,0.00034964,-0.00318614,0.00197984,-0.00282936,0.01064885,-0.0100
 3426,-0.01546400,-0.08736659,0.05546869,0.08702421,0.00095848,-0.00164
 563,0.00006794,-0.00019812,0.00163022,0.00023200,-0.00028819,0.0003286
 7,0.00090143,0.09366176,-0.00503951,0.00719695,0.01274445,-0.00122728,
 -0.00160682,0.00152409,-0.00159451,0.00014248,0.00030837,0.00014975,-0
 .00098406,0.00036142,0.05393821,-0.09821779,-0.10210055,0.00064326,-0.
 00142441,0.00007797,0.00017341,-0.00036722,0.00010192,-0.00024277,0.00
 035464,-0.00022189,-0.05944832,0.10895469,0.00182989,-0.00219889,-0.00
 604865,0.00065427,-0.00110112,-0.00026672,-0.00212054,-0.00010990,-0.0
 0231061,0.01139674,-0.00911497,-0.01722800,0.08853913,-0.10663749,-0.1
 9683397,-0.00012978,0.00074883,-0.00015252,-0.00038904,0.00189927,-0.0
 0005193,-0.00072060,0.00070472,0.00044394,-0.09496427,0.11011775,0.214
 76561,0.00757816,-0.02444117,0.00989065,-0.00464125,-0.00052982,0.0023
 0406,-0.00215283,-0.00227056,-0.00343288,-0.00254547,0.01904467,-0.005
 31459,-0.04892572,0.04783449,-0.01918747,-0.00055574,0.00178780,0.0012
 3753,0.00085425,-0.00089595,-0.00046499,0.00017909,-0.00097651,0.00007
 630,-0.00241508,0.01228074,-0.00421554,0.05279464,0.00347614,-0.010937
 05,0.00454435,-0.00228234,-0.00050174,-0.00027782,0.00051066,-0.000430
 95,-0.00151424,-0.00061371,0.00325014,-0.00074632,0.04936021,-0.271017
 81,0.08119989,-0.00020252,0.00058953,0.00047770,0.00025986,-0.00030288
 ,-0.00008926,0.00009867,0.00011703,0.00065304,0.00300490,-0.01412189,0
 .00519830,-0.05294394,0.29276153,-0.00165760,0.00622833,-0.00420798,-0
 .00055308,0.00123415,-0.00020735,-0.00159358,0.00002147,-0.00278426,-0
 .00185557,0.02198064,-0.00825709,-0.02069958,0.08574506,-0.06243439,0.
 00047661,-0.00061577,-0.00064922,0.00111714,-0.00146820,-0.00117059,0.
 00008992,-0.00097703,0.00021472,0.00489101,-0.02225602,0.00760928,0.01
 961181,-0.08968553,0.07180185,-0.24902540,-0.05085900,-0.14083112,0.00
 349740,-0.00215291,0.00314020,0.00134519,-0.00234313,-0.00104911,-0.00
 227019,-0.00155145,0.00208731,-0.00808356,0.00127909,-0.01327800,-0.00
 073020,0.00209704,0.00012283,0.00024618,-0.00011351,-0.00005275,0.0000
 5611,-0.00053545,-0.00105655,0.00035830,0.00036703,0.00011976,-0.00017
 006,-0.00066793,0.00017292,0.25477623,-0.05171008,-0.04665753,-0.02460
 036,0.00609407,0.00736338,0.00476167,-0.00235908,0.00542265,0.00324340
 ,-0.00180368,-0.00143985,0.00138233,-0.00599102,-0.00119343,-0.0093613
 8,0.00174158,-0.00428185,-0.00186121,0.00024229,0.00061211,0.00011869,
 -0.00089494,0.00168765,-0.00012735,-0.00090960,0.00007344,0.00049347,0
 .00111025,0.00059409,-0.00020709,0.05448020,0.03781935,-0.13803214,-0.
 02339374,-0.14977182,-0.02329806,-0.00677413,-0.00467992,-0.00100675,0
 .00326590,-0.00440039,0.00291062,0.00174341,-0.00172172,0.00996233,0.0
 0079084,0.00988627,0.00126547,-0.00136404,0.00051032,-0.00119351,-0.00
 038020,0.00009001,0.00008669,0.00037174,0.00097019,-0.00081430,-0.0006
 5750,0.00007357,-0.00050487,0.00023989,0.00008502,0.15062451,0.0261578
 3,0.14895848\\0.00003572,-0.00001280,-0.00005364,-0.00002309,0.0000200
 7,0.00004150,-0.00005411,-0.00001730,0.00002694,0.00008188,-0.00002647
 ,-0.00004353,-0.00001622,0.00001521,-0.00000714,-0.00001969,0.00000238
 ,-0.00001444,0.00001671,-0.00001161,-0.00000879,0.00000002,0.00003515,
 0.00002017,0.00002083,-0.00000289,0.00000890,-0.00001827,0.00000254,0.
 00000315,-0.00002379,-0.00000427,0.00002687\\\@
 The archive entry for this job was punched.


      THE ONE-EYED VIEW OF OUR UNIVERSE SAYS YOU MUST NOT LOOK
      FAR AFIELD FOR PROBLEMS.  SUCH PROBLEMS MAY NEVER ARRIVE. 
      INSTEAD, TEND TO THE WOLF WITHIN YOUR FENCES.
      THE PACKS RANGING OUTSIDE MAY NOT EVEN EXIST.

                              -- THE AZHAR BOOK SHAMRA I:4
                                 CHILDREN OF DUNE, BY FRANK HERBERT
 Job cpu time:       0 days  0 hours  5 minutes 43.0 seconds.
 Elapsed time:       0 days  0 hours  0 minutes 22.6 seconds.
 File lengths (MBytes):  RWF=     16 Int=      0 D2E=      0 Chk=      3 Scr=      1
 Normal termination of Gaussian 16 at Mon Dec 27 19:02:38 2021.
