 Entering Gaussian System, Link 0=/software/g16/g16
 Input=Z-isomer.com
 Output=Z-isomer.log
 Initial command:
 /software/g16/l1.exe "/scratch/Gau-1127363.inp" -scrdir="/scratch/"
 Default CPUs for threads: 0-15
 Default is to use a total of  16 processors:
                               16 via shared-memory
                                1 via Linda
 Entering Link 1 = /software/g16/l1.exe PID=   1127364.
  
 Copyright (c) 1988-2019, Gaussian, Inc.  All Rights Reserved.
  
 This is part of the Gaussian(R) 16 program.  It is based on
 the Gaussian(R) 09 system (copyright 2009, Gaussian, Inc.),
 the Gaussian(R) 03 system (copyright 2003, Gaussian, Inc.),
 the Gaussian(R) 98 system (copyright 1998, Gaussian, Inc.),
 the Gaussian(R) 94 system (copyright 1995, Gaussian, Inc.),
 the Gaussian 92(TM) system (copyright 1992, Gaussian, Inc.),
 the Gaussian 90(TM) system (copyright 1990, Gaussian, Inc.),
 the Gaussian 88(TM) system (copyright 1988, Gaussian, Inc.),
 the Gaussian 86(TM) system (copyright 1986, Carnegie Mellon
 University), and the Gaussian 82(TM) system (copyright 1983,
 Carnegie Mellon University). Gaussian is a federally registered
 trademark of Gaussian, Inc.
  
 This software contains proprietary and confidential information,
 including trade secrets, belonging to Gaussian, Inc.
  
 This software is provided under written license and may be
 used, copied, transmitted, or stored only in accord with that
 written license.
  
 The following legend is applicable only to US Government
 contracts under FAR:
  
                    RESTRICTED RIGHTS LEGEND
  
 Use, reproduction and disclosure by the US Government is
 subject to restrictions as set forth in subparagraphs (a)
 and (c) of the Commercial Computer Software - Restricted
 Rights clause in FAR 52.227-19.
  
 Gaussian, Inc.
 340 Quinnipiac St., Bldg. 40, Wallingford CT 06492
  
  
 ---------------------------------------------------------------
 Warning -- This program may not be used in any manner that
 competes with the business of Gaussian, Inc. or will provide
 assistance to any competitor of Gaussian, Inc.  The licensee
 of this program is prohibited from giving any competitor of
 Gaussian, Inc. access to this program.  By using this program,
 the user acknowledges that Gaussian, Inc. is engaged in the
 business of creating and licensing software in the field of
 computational chemistry and represents and warrants to the
 licensee that it is not a competitor of Gaussian, Inc. and that
 it will not use this program in any manner prohibited above.
 ---------------------------------------------------------------
  

 Cite this work as:
 Gaussian 16, Revision C.01,
 M. J. Frisch, G. W. Trucks, H. B. Schlegel, G. E. Scuseria, 
 M. A. Robb, J. R. Cheeseman, G. Scalmani, V. Barone, 
 G. A. Petersson, H. Nakatsuji, X. Li, M. Caricato, A. V. Marenich, 
 J. Bloino, B. G. Janesko, R. Gomperts, B. Mennucci, H. P. Hratchian, 
 J. V. Ortiz, A. F. Izmaylov, J. L. Sonnenberg, D. Williams-Young, 
 F. Ding, F. Lipparini, F. Egidi, J. Goings, B. Peng, A. Petrone, 
 T. Henderson, D. Ranasinghe, V. G. Zakrzewski, J. Gao, N. Rega, 
 G. Zheng, W. Liang, M. Hada, M. Ehara, K. Toyota, R. Fukuda, 
 J. Hasegawa, M. Ishida, T. Nakajima, Y. Honda, O. Kitao, H. Nakai, 
 T. Vreven, K. Throssell, J. A. Montgomery, Jr., J. E. Peralta, 
 F. Ogliaro, M. J. Bearpark, J. J. Heyd, E. N. Brothers, K. N. Kudin, 
 V. N. Staroverov, T. A. Keith, R. Kobayashi, J. Normand, 
 K. Raghavachari, A. P. Rendell, J. C. Burant, S. S. Iyengar, 
 J. Tomasi, M. Cossi, J. M. Millam, M. Klene, C. Adamo, R. Cammi, 
 J. W. Ochterski, R. L. Martin, K. Morokuma, O. Farkas, 
 J. B. Foresman, and D. J. Fox, Gaussian, Inc., Wallingford CT, 2019.
 
 ******************************************
 Gaussian 16:  ES64L-G16RevC.01  3-Jul-2019
                31-Dec-2021 
 ******************************************
 SetSPE:  set environment variable "MP_BIND" = "yes"
 SetSPE:  set environment variable "MP_BLIST" = "0,1,2,3,4,5,6,7,8,9,10,11,12,13,14,15"
 ------------------------------------------------------
 #N M062X/gen OPT FREQ=NoRaman Integral(Grid=UltraFine)
 ------------------------------------------------------
 1/18=20,19=15,26=4,38=1/1,3;
 2/9=110,12=2,17=6,18=5,40=1/2;
 3/5=7,11=2,25=1,30=1,71=1,74=-55,75=-5/1,2,3;
 4//1;
 5/5=2,38=5/2;
 6/7=2,8=2,9=2,10=2,28=1/1;
 7//1,2,3,16;
 1/18=20,19=15,26=4/3(2);
 2/9=110/2;
 99//99;
 2/9=110/2;
 3/5=7,6=1,11=2,25=1,30=1,71=1,74=-55,75=-5,82=7/1,2,3;
 4/5=5,16=3,69=1/1;
 5/5=2,38=5/2;
 7//1,2,3,16;
 1/18=20,19=15,26=4/3(-5);
 2/9=110/2;
 6/7=2,8=2,9=2,10=2,19=2,28=1/1;
 99/9=1/99;
 ---------------------------------------
 Z-isomer - CH: def2svp - NOSF: def2tzvp
 ---------------------------------------
 Symbolic Z-matrix:
 Charge =  0 Multiplicity = 1
 C
 C                    1    B1
 C                    2    B2       1    A1
 C                    3    B3       2    A2       1    D1       0
 C                    4    B4       3    A3       2    D2       0
 C                    1    B5       2    A4       3    D3       0
 H                    1    B6       2    A5       3    D4       0
 H                    3    B7       2    A6       1    D5       0
 H                    4    B8       3    A7       2    D6       0
 H                    6    B9       1    A8       2    D7       0
 N                    2    B10      1    A9       6    D8       0
 O                    11   B11      2    A10      1    D9       0
 O                    11   B12      2    A11      1    D10      0
 C                    5    B13      4    A12      3    D11      0
 C                    14   B14      5    A13      4    D12      0
 C                    15   B15      14   A14      5    D13      0
 H                    16   B16      15   A15      14   D14      0
 H                    16   B17      15   A16      14   D15      0
 H                    16   B18      15   A17      14   D16      0
 C                    14   B19      5    A18      4    D17      0
 H                    20   B20      14   A19      5    D18      0
 H                    20   B21      14   A20      5    D19      0
 H                    20   B22      14   A21      5    D20      0
 S                    15   B23      14   A22      5    D21      0
 O                    24   B24      15   A23      14   D22      0
 O                    24   B25      15   A24      14   D23      0
 C                    24   B26      15   A25      14   D24      0
 F                    27   B27      24   A26      15   D25      0
 F                    27   B28      24   A27      15   D26      0
 F                    27   B29      24   A28      15   D27      0
 O                    24   B30      15   A29      14   D28      0
       Variables:
  B1                    1.4014                   
  B2                    1.4014                   
  B3                    1.4014                   
  B4                    1.4014                   
  B5                    1.4014                   
  B6                    1.07                     
  B7                    1.07                     
  B8                    1.07                     
  B9                    1.07                     
  B10                   1.47                     
  B11                   1.1968                   
  B12                   1.1968                   
  B13                   1.54                     
  B14                   1.3552                   
  B15                   1.54                     
  B16                   1.07                     
  B17                   1.07                     
  B18                   1.07                     
  B19                   1.54                     
  B20                   1.07                     
  B21                   1.07                     
  B22                   1.07                     
  B23                   2.53493                  
  B24                   1.4696                   
  B25                   1.4696                   
  B26                   1.78                     
  B27                   1.35                     
  B28                   1.35                     
  B29                   1.35                     
  B30                   1.67                     
  A1                  120.                       
  A2                  120.                       
  A3                  120.                       
  A4                  120.                       
  A5                  120.                       
  A6                  120.                       
  A7                  120.                       
  A8                  120.                       
  A9                  120.                       
  A10                 120.                       
  A11                 120.                       
  A12                 120.                       
  A13                 120.                       
  A14                 120.                       
  A15                 109.47122                  
  A16                 109.47122                  
  A17                 109.47122                  
  A18                 120.                       
  A19                 109.47122                  
  A20                 109.47122                  
  A21                 109.47122                  
  A22                 113.07018                  
  A23                 141.60215                  
  A24                  91.8085                   
  A25                  91.8085                   
  A26                 109.47122                  
  A27                 109.47122                  
  A28                 109.47122                  
  A29                  32.13093                  
  D1                    0.                       
  D2                    0.                       
  D3                    0.                       
  D4                 -180.                       
  D5                 -180.                       
  D6                  180.                       
  D7                  180.                       
  D8                  180.                       
  D9                    0.                       
  D10                 180.                       
  D11                -180.                       
  D12                -180.                       
  D13                 180.                       
  D14                 -30.                       
  D15                  90.                       
  D16                -150.                       
  D17                   0.                       
  D18                 -30.                       
  D19                  90.                       
  D20                -150.                       
  D21                 -42.46273                  
  D22                 109.72798                  
  D23                 -15.49601                  
  D24                -125.04803                  
  D25                 -87.44069                  
  D26                 152.55931                  
  D27                  32.55931                  
  D28                 109.72798                  
 
     9 tetrahedral angles replaced.

 GradGradGradGradGradGradGradGradGradGradGradGradGradGradGradGradGradGrad
 Berny optimization.
 Initialization pass.
                           ----------------------------
                           !    Initial Parameters    !
                           ! (Angstroms and Degrees)  !
 --------------------------                            --------------------------
 ! Name  Definition              Value          Derivative Info.                !
 --------------------------------------------------------------------------------
 ! R1    R(1,2)                  1.4014         estimate D2E/DX2                !
 ! R2    R(1,6)                  1.4014         estimate D2E/DX2                !
 ! R3    R(1,7)                  1.07           estimate D2E/DX2                !
 ! R4    R(2,3)                  1.4014         estimate D2E/DX2                !
 ! R5    R(2,11)                 1.47           estimate D2E/DX2                !
 ! R6    R(3,4)                  1.4014         estimate D2E/DX2                !
 ! R7    R(3,8)                  1.07           estimate D2E/DX2                !
 ! R8    R(4,5)                  1.4014         estimate D2E/DX2                !
 ! R9    R(4,9)                  1.07           estimate D2E/DX2                !
 ! R10   R(5,6)                  1.4014         estimate D2E/DX2                !
 ! R11   R(5,14)                 1.54           estimate D2E/DX2                !
 ! R12   R(6,10)                 1.07           estimate D2E/DX2                !
 ! R13   R(11,12)                1.1968         estimate D2E/DX2                !
 ! R14   R(11,13)                1.1968         estimate D2E/DX2                !
 ! R15   R(14,15)                1.3552         estimate D2E/DX2                !
 ! R16   R(14,20)                1.54           estimate D2E/DX2                !
 ! R17   R(15,16)                1.54           estimate D2E/DX2                !
 ! R18   R(15,31)                1.43           estimate D2E/DX2                !
 ! R19   R(16,17)                1.07           estimate D2E/DX2                !
 ! R20   R(16,18)                1.07           estimate D2E/DX2                !
 ! R21   R(16,19)                1.07           estimate D2E/DX2                !
 ! R22   R(20,21)                1.07           estimate D2E/DX2                !
 ! R23   R(20,22)                1.07           estimate D2E/DX2                !
 ! R24   R(20,23)                1.07           estimate D2E/DX2                !
 ! R25   R(24,25)                1.4696         estimate D2E/DX2                !
 ! R26   R(24,26)                1.4696         estimate D2E/DX2                !
 ! R27   R(24,27)                1.78           estimate D2E/DX2                !
 ! R28   R(24,31)                1.67           estimate D2E/DX2                !
 ! R29   R(27,28)                1.35           estimate D2E/DX2                !
 ! R30   R(27,29)                1.35           estimate D2E/DX2                !
 ! R31   R(27,30)                1.35           estimate D2E/DX2                !
 ! A1    A(2,1,6)              120.0            estimate D2E/DX2                !
 ! A2    A(2,1,7)              120.0            estimate D2E/DX2                !
 ! A3    A(6,1,7)              120.0            estimate D2E/DX2                !
 ! A4    A(1,2,3)              120.0            estimate D2E/DX2                !
 ! A5    A(1,2,11)             120.0            estimate D2E/DX2                !
 ! A6    A(3,2,11)             120.0            estimate D2E/DX2                !
 ! A7    A(2,3,4)              120.0            estimate D2E/DX2                !
 ! A8    A(2,3,8)              120.0            estimate D2E/DX2                !
 ! A9    A(4,3,8)              120.0            estimate D2E/DX2                !
 ! A10   A(3,4,5)              120.0            estimate D2E/DX2                !
 ! A11   A(3,4,9)              120.0            estimate D2E/DX2                !
 ! A12   A(5,4,9)              120.0            estimate D2E/DX2                !
 ! A13   A(4,5,6)              120.0            estimate D2E/DX2                !
 ! A14   A(4,5,14)             120.0            estimate D2E/DX2                !
 ! A15   A(6,5,14)             120.0            estimate D2E/DX2                !
 ! A16   A(1,6,5)              120.0            estimate D2E/DX2                !
 ! A17   A(1,6,10)             120.0            estimate D2E/DX2                !
 ! A18   A(5,6,10)             120.0            estimate D2E/DX2                !
 ! A19   A(2,11,12)            120.0            estimate D2E/DX2                !
 ! A20   A(2,11,13)            120.0            estimate D2E/DX2                !
 ! A21   A(12,11,13)           120.0            estimate D2E/DX2                !
 ! A22   A(5,14,15)            120.0            estimate D2E/DX2                !
 ! A23   A(5,14,20)            120.0            estimate D2E/DX2                !
 ! A24   A(15,14,20)           120.0            estimate D2E/DX2                !
 ! A25   A(14,15,16)           120.0            estimate D2E/DX2                !
 ! A26   A(14,15,31)           120.0            estimate D2E/DX2                !
 ! A27   A(16,15,31)           120.0            estimate D2E/DX2                !
 ! A28   A(15,16,17)           109.4712         estimate D2E/DX2                !
 ! A29   A(15,16,18)           109.4712         estimate D2E/DX2                !
 ! A30   A(15,16,19)           109.4712         estimate D2E/DX2                !
 ! A31   A(17,16,18)           109.4712         estimate D2E/DX2                !
 ! A32   A(17,16,19)           109.4712         estimate D2E/DX2                !
 ! A33   A(18,16,19)           109.4712         estimate D2E/DX2                !
 ! A34   A(14,20,21)           109.4712         estimate D2E/DX2                !
 ! A35   A(14,20,22)           109.4712         estimate D2E/DX2                !
 ! A36   A(14,20,23)           109.4712         estimate D2E/DX2                !
 ! A37   A(21,20,22)           109.4712         estimate D2E/DX2                !
 ! A38   A(21,20,23)           109.4712         estimate D2E/DX2                !
 ! A39   A(22,20,23)           109.4712         estimate D2E/DX2                !
 ! A40   A(25,24,26)           109.4712         estimate D2E/DX2                !
 ! A41   A(25,24,27)           109.4712         estimate D2E/DX2                !
 ! A42   A(25,24,31)           109.4712         estimate D2E/DX2                !
 ! A43   A(26,24,27)           109.4712         estimate D2E/DX2                !
 ! A44   A(26,24,31)           109.4712         estimate D2E/DX2                !
 ! A45   A(27,24,31)           109.4712         estimate D2E/DX2                !
 ! A46   A(24,27,28)           109.4712         estimate D2E/DX2                !
 ! A47   A(24,27,29)           109.4712         estimate D2E/DX2                !
 ! A48   A(24,27,30)           109.4712         estimate D2E/DX2                !
 ! A49   A(28,27,29)           109.4712         estimate D2E/DX2                !
 ! A50   A(28,27,30)           109.4712         estimate D2E/DX2                !
 ! A51   A(29,27,30)           109.4712         estimate D2E/DX2                !
 ! A52   A(15,31,24)           109.4712         estimate D2E/DX2                !
 ! D1    D(6,1,2,3)              0.0            estimate D2E/DX2                !
 ! D2    D(6,1,2,11)           180.0            estimate D2E/DX2                !
 ! D3    D(7,1,2,3)            180.0            estimate D2E/DX2                !
 ! D4    D(7,1,2,11)             0.0            estimate D2E/DX2                !
 ! D5    D(2,1,6,5)              0.0            estimate D2E/DX2                !
 ! D6    D(2,1,6,10)           180.0            estimate D2E/DX2                !
 ! D7    D(7,1,6,5)            180.0            estimate D2E/DX2                !
 ! D8    D(7,1,6,10)             0.0            estimate D2E/DX2                !
 ! D9    D(1,2,3,4)              0.0            estimate D2E/DX2                !
 ! D10   D(1,2,3,8)            180.0            estimate D2E/DX2                !
 ! D11   D(11,2,3,4)           180.0            estimate D2E/DX2                !
 ! D12   D(11,2,3,8)             0.0            estimate D2E/DX2                !
 ! D13   D(1,2,11,12)            0.0            estimate D2E/DX2                !
 ! D14   D(1,2,11,13)          180.0            estimate D2E/DX2                !
 ! D15   D(3,2,11,12)          180.0            estimate D2E/DX2                !
 ! D16   D(3,2,11,13)            0.0            estimate D2E/DX2                !
 ! D17   D(2,3,4,5)              0.0            estimate D2E/DX2                !
 ! D18   D(2,3,4,9)            180.0            estimate D2E/DX2                !
 ! D19   D(8,3,4,5)            180.0            estimate D2E/DX2                !
 ! D20   D(8,3,4,9)              0.0            estimate D2E/DX2                !
 ! D21   D(3,4,5,6)              0.0            estimate D2E/DX2                !
 ! D22   D(3,4,5,14)           180.0            estimate D2E/DX2                !
 ! D23   D(9,4,5,6)            180.0            estimate D2E/DX2                !
 ! D24   D(9,4,5,14)             0.0            estimate D2E/DX2                !
 ! D25   D(4,5,6,1)              0.0            estimate D2E/DX2                !
 ! D26   D(4,5,6,10)           180.0            estimate D2E/DX2                !
 ! D27   D(14,5,6,1)           180.0            estimate D2E/DX2                !
 ! D28   D(14,5,6,10)            0.0            estimate D2E/DX2                !
 ! D29   D(4,5,14,15)          180.0            estimate D2E/DX2                !
 ! D30   D(4,5,14,20)            0.0            estimate D2E/DX2                !
 ! D31   D(6,5,14,15)            0.0            estimate D2E/DX2                !
 ! D32   D(6,5,14,20)          180.0            estimate D2E/DX2                !
 ! D33   D(5,14,15,16)         180.0            estimate D2E/DX2                !
 ! D34   D(5,14,15,31)           0.0            estimate D2E/DX2                !
 ! D35   D(20,14,15,16)          0.0            estimate D2E/DX2                !
 ! D36   D(20,14,15,31)        180.0            estimate D2E/DX2                !
 ! D37   D(5,14,20,21)         -30.0            estimate D2E/DX2                !
 ! D38   D(5,14,20,22)          90.0            estimate D2E/DX2                !
 ! D39   D(5,14,20,23)        -150.0            estimate D2E/DX2                !
 ! D40   D(15,14,20,21)        150.0            estimate D2E/DX2                !
 ! D41   D(15,14,20,22)        -90.0            estimate D2E/DX2                !
 ! D42   D(15,14,20,23)         30.0            estimate D2E/DX2                !
 ! D43   D(14,15,16,17)        -30.0            estimate D2E/DX2                !
 ! D44   D(14,15,16,18)         90.0            estimate D2E/DX2                !
 ! D45   D(14,15,16,19)       -150.0            estimate D2E/DX2                !
 ! D46   D(31,15,16,17)        150.0            estimate D2E/DX2                !
 ! D47   D(31,15,16,18)        -90.0            estimate D2E/DX2                !
 ! D48   D(31,15,16,19)         30.0            estimate D2E/DX2                !
 ! D49   D(14,15,31,24)        -90.0            estimate D2E/DX2                !
 ! D50   D(16,15,31,24)         90.0            estimate D2E/DX2                !
 ! D51   D(25,24,27,28)         60.0            estimate D2E/DX2                !
 ! D52   D(25,24,27,29)        -60.0            estimate D2E/DX2                !
 ! D53   D(25,24,27,30)        180.0            estimate D2E/DX2                !
 ! D54   D(26,24,27,28)        180.0            estimate D2E/DX2                !
 ! D55   D(26,24,27,29)         60.0            estimate D2E/DX2                !
 ! D56   D(26,24,27,30)        -60.0            estimate D2E/DX2                !
 ! D57   D(31,24,27,28)        -60.0            estimate D2E/DX2                !
 ! D58   D(31,24,27,29)        180.0            estimate D2E/DX2                !
 ! D59   D(31,24,27,30)         60.0            estimate D2E/DX2                !
 ! D60   D(25,24,31,15)        180.0            estimate D2E/DX2                !
 ! D61   D(26,24,31,15)         60.0            estimate D2E/DX2                !
 ! D62   D(27,24,31,15)        -60.0            estimate D2E/DX2                !
 --------------------------------------------------------------------------------
 Trust Radius=3.00D-01 FncErr=1.00D-07 GrdErr=1.00D-06 EigMax=2.50D+02 EigMin=1.00D-04
 Number of steps in this run=    155 maximum allowed number of steps=    186.
 GradGradGradGradGradGradGradGradGradGradGradGradGradGradGradGradGradGrad

                          Input orientation:                          
 ---------------------------------------------------------------------
 Center     Atomic      Atomic             Coordinates (Angstroms)
 Number     Number       Type             X           Y           Z
 ---------------------------------------------------------------------
      1          6           0        0.000000    0.000000    0.000000
      2          6           0        0.000000    0.000000    1.401400
      3          6           0        1.213648    0.000000    2.102100
      4          6           0        2.427296    0.000000    1.401400
      5          6           0        2.427296    0.000000    0.000000
      6          6           0        1.213648    0.000000   -0.700700
      7          1           0       -0.926647    0.000000   -0.535000
      8          1           0        1.213648    0.000000    3.172100
      9          1           0        3.353943    0.000000    1.936400
     10          1           0        1.213648    0.000000   -1.770700
     11          7           0       -1.273057    0.000000    2.136400
     12          8           0       -2.309517    0.000000    1.538000
     13          8           0       -1.273057    0.000000    3.333200
     14          6           0        3.760975    0.000000   -0.770000
     15          6           0        3.760975    0.000000   -2.125200
     16          6           0        5.094654    0.000000   -2.895200
     17          1           0        5.840362    0.504403   -2.316929
     18          1           0        5.403537   -1.008806   -3.073533
     19          1           0        4.966711    0.504403   -3.830138
     20          6           0        5.094654    0.000000    0.000000
     21          1           0        4.966711    0.504403    0.934938
     22          1           0        5.403537   -1.008806    0.178333
     23          1           0        5.840362    0.504403   -0.578271
     24         16           0        2.040473   -1.574492   -3.118533
     25          8           0        0.767762   -1.574493   -3.853333
     26          8           0        1.864748   -2.267269   -1.834436
     27          6           0        3.280997   -2.413592   -4.080517
     28          9           0        3.442420   -1.777195   -5.260111
     29          9           0        2.891286   -3.686384   -4.305517
     30          9           0        4.450131   -2.413591   -3.405517
     31          8           0        2.522559   -0.000001   -2.840200
 ---------------------------------------------------------------------
                    Distance matrix (angstroms):
                    1          2          3          4          5
     1  C    0.000000
     2  C    1.401400   0.000000
     3  C    2.427296   1.401400   0.000000
     4  C    2.802800   2.427296   1.401400   0.000000
     5  C    2.427296   2.802800   2.427296   1.401400   0.000000
     6  C    1.401400   2.427296   2.802800   2.427296   1.401400
     7  H    1.070000   2.146700   3.396345   3.872800   3.396345
     8  H    3.396345   2.146700   1.070000   2.146700   3.396345
     9  H    3.872800   3.396345   2.146700   1.070000   2.146700
    10  H    2.146700   3.396345   3.872800   3.396345   2.146700
    11  N    2.486942   1.470000   2.486942   3.772644   4.272800
    12  O    2.774763   2.313553   3.568038   4.738782   4.980245
    13  O    3.568038   2.313553   2.774763   4.174262   4.980245
    14  C    3.838989   4.342800   3.838989   2.548270   1.540000
    15  C    4.319885   5.155758   4.935478   3.770359   2.509019
    16  C    5.859837   6.664554   6.327339   5.057230   3.936621
    17  H    6.303365   6.941918   6.417844   5.072417   4.155912
    18  H    6.297817   7.088083   6.734986   5.468156   4.395714
    19  H    6.292265   7.231295   7.037851   5.837126   4.623095
    20  C    5.094654   5.283883   4.413732   3.013092   2.667358
    21  H    5.079050   5.014003   3.962597   2.630711   2.752664
    22  H    5.499791   5.631322   4.719506   3.372179   3.147618
    23  H    5.890556   6.187354   5.370782   3.977756   3.498263
    24  S    4.045714   5.203110   5.515222   4.801922   3.514813
    25  O    4.232808   5.539017   6.176166   5.731082   4.481212
    26  O    3.461640   4.369030   4.589200   3.990940   2.970206
    27  C    5.765499   6.829478   6.951554   6.050260   4.817141
    28  F    6.532798   7.706128   7.894808   6.968833   5.644260
    29  F    6.362895   7.383621   7.580333   6.809817   5.687019
    30  F    6.101363   6.981084   6.828915   5.746628   4.638408
    31  O    3.798689   4.935025   5.112688   4.242670   2.841797
                    6          7          8          9         10
     6  C    0.000000
     7  H    2.146700   0.000000
     8  H    3.872800   4.280590   0.000000
     9  H    3.396345   4.942800   2.471400   0.000000
    10  H    1.070000   2.471400   4.942800   4.280590   0.000000
    11  N    3.772644   2.693767   2.693767   4.631321   4.631321
    12  O    4.174262   2.491918   3.883680   5.677455   4.833237
    13  O    4.738782   3.883680   2.491918   4.833237   5.677455
    14  C    2.548270   4.693509   4.693509   2.736837   2.736837
    15  C    2.918574   4.950004   5.877947   4.081944   2.571876
    16  C    4.458480   6.467350   7.202384   5.135604   4.040632
    17  H    4.926774   7.015847   7.196551   4.952526   4.686072
    18  H    4.919674   6.894423   7.588201   5.506174   4.502247
    19  H    4.912564   6.770822   7.960605   6.009026   4.310590
    20  C    3.943753   6.045022   5.012427   2.603790   4.265863
    21  H    4.124950   6.094818   4.398272   1.964273   4.654071
    22  H    4.398358   6.449633   5.247427   2.882589   4.729861
    23  H    4.655738   6.785920   5.977139   3.572152   4.804456
    24  S    3.001430   4.237626   6.537181   5.454959   2.231439
    25  O    3.552033   4.044921   7.213498   6.533634   2.648623
    26  O    2.617211   3.823732   5.534423   4.645149   2.359767
    27  C    4.639237   6.008359   7.918321   6.483366   3.928690
    28  F    5.377181   6.676365   8.901013   7.413233   4.505756
    29  F    5.422048   6.510211   8.504037   7.263952   4.777991
    30  F    4.859658   6.555534   7.717855   5.963482   4.355786
    31  O    2.508128   4.148610   6.153129   4.848413   1.690289
                   11         12         13         14         15
    11  N    0.000000
    12  O    1.196800   0.000000
    13  O    1.196800   2.072918   0.000000
    14  C    5.812800   6.494439   6.494439   0.000000
    15  C    6.595659   7.090127   7.425336   1.355200   0.000000
    16  C    8.115710   8.629890   8.907341   2.509019   1.540000
    17  H    8.407574   9.029697   9.098303   2.640315   2.148263
    18  H    8.528658   9.042960   9.308106   3.003658   2.148263
    19  H    8.648046   9.056203   9.513282   3.327561   2.148263
    20  C    6.716543   7.562221   7.187348   1.540000   2.509019
    21  H    6.374374   7.318579   6.703789   2.148263   3.327561
    22  H    7.030549   7.896681   7.453038   2.148263   3.003658
    23  H    7.630505   8.435256   8.133558   2.148263   2.640315
    24  S    6.408809   6.563896   7.421817   3.309798   2.534929
    25  O    6.520803   6.404307   7.634804   4.576604   3.798000
    26  O    5.545617   5.825660   6.456841   3.141529   2.969971
    27  C    8.075574   8.285348   9.029287   4.124964   3.143098
    28  F    8.950001   9.080612   9.961885   4.839524   3.617674
    29  F    8.510551   8.647801   9.448872   5.181280   4.370305
    30  F    8.324251   8.715309   9.164639   3.639547   2.817724
    31  O    6.258854   6.520551   7.246901   2.412344   1.430000
                   16         17         18         19         20
    16  C    0.000000
    17  H    1.070000   0.000000
    18  H    1.070000   1.747303   0.000000
    19  H    1.070000   1.747303   1.747303   0.000000
    20  C    2.895200   2.485692   3.249570   3.865326   0.000000
    21  H    3.865326   3.367180   4.306792   4.765075   1.070000
    22  H    3.249570   2.950754   3.251867   4.306792   1.070000
    23  H    2.485692   1.738658   2.950754   3.367180   1.070000
    24  S    3.443389   4.404945   3.410605   3.659379   4.640291
    25  O    4.703089   5.693297   4.734818   4.685459   6.004099
    26  O    4.086321   4.870366   3.955011   4.613801   4.351776
    27  C    3.243417   4.263248   2.737264   3.379203   5.075962
    28  F    3.388378   4.429236   3.036037   3.094184   5.792846
    29  F    4.520315   5.496747   3.872804   4.700645   6.081261
    30  F    2.549755   3.410638   1.729918   2.993634   4.223550
    31  O    2.572683   3.396477   3.061399   2.684824   3.831763
                   21         22         23         24         25
    21  H    0.000000
    22  H    1.747303   0.000000
    23  H    1.747303   1.747303   0.000000
    24  S    5.414361   4.743367   5.021345   0.000000
    25  O    6.699293   6.169664   6.385853   1.469600   0.000000
    26  O    4.997376   4.261219   5.006558   1.469600   2.399847
    27  C    6.042442   4.961492   5.227884   1.780000   2.659333
    28  F    6.775528   5.832073   5.733711   2.567664   3.028846
    29  F    7.023706   5.795320   6.336569   2.567664   3.028846
    30  F    5.255576   3.965651   4.294269   2.567664   3.803218
    31  O    4.525480   4.292932   4.047044   1.670000   2.566082
                   26         27         28         29         30
    26  O    0.000000
    27  C    2.659333   0.000000
    28  F    3.803218   1.350000   0.000000
    29  F    3.028846   1.350000   2.204541   0.000000
    30  F    3.028846   1.350000   2.204541   2.204541   0.000000
    31  O    2.566082   2.817629   3.140149   3.984035   3.140149
                   31
    31  O    0.000000
 Stoichiometry    C11H10F3NO5S
 Framework group  C1[X(C11H10F3NO5S)]
 Deg. of freedom    87
 Full point group                 C1      NOp   1
 Largest Abelian subgroup         C1      NOp   1
 Largest concise Abelian subgroup C1      NOp   1
                         Standard orientation:                         
 ---------------------------------------------------------------------
 Center     Atomic      Atomic             Coordinates (Angstroms)
 Number     Number       Type             X           Y           Z
 ---------------------------------------------------------------------
      1          6           0       -2.403571   -0.758517   -0.586418
      2          6           0       -3.516905   -0.141688    0.000038
      3          6           0       -3.405929    1.154013    0.522308
      4          6           0       -2.181619    1.832885    0.458122
      5          6           0       -1.068284    1.216055   -0.128334
      6          6           0       -1.179260   -0.079645   -0.650604
      7          1           0       -2.488303   -1.747813   -0.985183
      8          1           0       -4.255984    1.624976    0.970080
      9          1           0       -2.096886    2.822181    0.856887
     10          1           0       -0.329205   -0.550608   -1.098376
     11          7           0       -4.801146   -0.853791    0.067366
     12          8           0       -4.895920   -1.960323   -0.378654
     13          8           0       -5.751937   -0.327017    0.568201
     14          6           0        0.277111    1.962068   -0.198868
     15          6           0        1.353742    1.365574   -0.765991
     16          6           0        2.699138    2.111587   -0.836525
     17          1           0        2.520144    3.164481   -0.901912
     18          1           0        3.270361    1.900878    0.043365
     19          1           0        3.241697    1.787735   -1.700035
     20          6           0        0.399063    3.385915    0.375055
     21          1           0       -0.543889    3.885093    0.294048
     22          1           0        0.686934    3.332194    1.404202
     23          1           0        1.138877    3.929755   -0.174321
     24         16           0        1.601632   -1.069776   -0.107592
     25          8           0        1.485255   -2.428533   -0.655278
     26          8           0        0.663113   -0.910879    1.012076
     27          6           0        3.264253   -0.803020    0.469410
     28          9           0        4.126393   -0.948986   -0.559137
     29          9           0        3.556185   -1.702917    1.432458
     30          9           0        3.371159    0.445158    0.972524
     31          8           0        1.240502    0.043430   -1.298918
 ---------------------------------------------------------------------
 Rotational constants (GHZ):           0.5746129           0.1644331           0.1395681
 General basis read from cards:  (5D, 7F)
 There are   581 symmetry adapted cartesian basis functions of A   symmetry.
 There are   520 symmetry adapted basis functions of A   symmetry.
   520 basis functions,   873 primitive gaussians,   581 cartesian basis functions
    83 alpha electrons       83 beta electrons
       nuclear repulsion energy      2025.9175103833 Hartrees.
 NAtoms=   31 NActive=   31 NUniq=   31 SFac= 1.00D+00 NAtFMM=   60 NAOKFM=F Big=F
 Integral buffers will be    131072 words long.
 Raffenetti 2 integral format.
 Two-electron integral symmetry is turned on.
 One-electron integrals computed using PRISM.
 NBasis=   520 RedAO= T EigKep=  2.45D-04  NBF=   520
 NBsUse=   520 1.00D-06 EigRej= -1.00D+00 NBFU=   520
 ExpMin= 1.08D-01 ExpMax= 6.07D+04 ExpMxC= 2.07D+03 IAcc=3 IRadAn=         5 AccDes= 0.00D+00
 Harris functional with IExCor= 1009 and IRadAn=       5 diagonalized for initial guess.
 HarFok:  IExCor= 1009 AccDes= 0.00D+00 IRadAn=         5 IDoV= 1 UseB2=F ITyADJ=14
 ICtDFT=  3500011 ScaDFX=  1.000000  1.000000  1.000000  1.000000
 FoFCou: FMM=F IPFlag=           0 FMFlag=      100000 FMFlg1=           0
         NFxFlg=           0 DoJE=T BraDBF=F KetDBF=T FulRan=T
         wScrn=  0.000000 ICntrl=       500 IOpCl=  0 I1Cent=   200000004 NGrid=           0
         NMat0=    1 NMatS0=      1 NMatT0=    0 NMatD0=    1 NMtDS0=    0 NMtDT0=    0
 Petite list used in FoFCou.
 Requested convergence on RMS density matrix=1.00D-08 within 128 cycles.
 Requested convergence on MAX density matrix=1.00D-06.
 Requested convergence on             energy=1.00D-06.
 No special actions if energy rises.
 Integral accuracy reduced to 1.0D-05 until final iterations.
 Initial convergence to 1.0D-05 achieved.  Increase integral accuracy.
 SCF Done:  E(RM062X) =  -1553.11454960     A.U. after   15 cycles
            NFock= 15  Conv=0.73D-08     -V/T= 2.0052

 **********************************************************************

            Population analysis using the SCF Density.

 **********************************************************************

 Orbital symmetries:
       Occupied  (A) (A) (A) (A) (A) (A) (A) (A) (A) (A) (A) (A)
                 (A) (A) (A) (A) (A) (A) (A) (A) (A) (A) (A) (A)
                 (A) (A) (A) (A) (A) (A) (A) (A) (A) (A) (A) (A)
                 (A) (A) (A) (A) (A) (A) (A) (A) (A) (A) (A) (A)
                 (A) (A) (A) (A) (A) (A) (A) (A) (A) (A) (A) (A)
                 (A) (A) (A) (A) (A) (A) (A) (A) (A) (A) (A) (A)
                 (A) (A) (A) (A) (A) (A) (A) (A) (A) (A) (A)
       Virtual   (A) (A) (A) (A) (A) (A) (A) (A) (A) (A) (A) (A)
                 (A) (A) (A) (A) (A) (A) (A) (A) (A) (A) (A) (A)
                 (A) (A) (A) (A) (A) (A) (A) (A) (A) (A) (A) (A)
                 (A) (A) (A) (A) (A) (A) (A) (A) (A) (A) (A) (A)
                 (A) (A) (A) (A) (A) (A) (A) (A) (A) (A) (A) (A)
                 (A) (A) (A) (A) (A) (A) (A) (A) (A) (A) (A) (A)
                 (A) (A) (A) (A) (A) (A) (A) (A) (A) (A) (A) (A)
                 (A) (A) (A) (A) (A) (A) (A) (A) (A) (A) (A) (A)
                 (A) (A) (A) (A) (A) (A) (A) (A) (A) (A) (A) (A)
                 (A) (A) (A) (A) (A) (A) (A) (A) (A) (A) (A) (A)
                 (A) (A) (A) (A) (A) (A) (A) (A) (A) (A) (A) (A)
                 (A) (A) (A) (A) (A) (A) (A) (A) (A) (A) (A) (A)
                 (A) (A) (A) (A) (A) (A) (A) (A) (A) (A) (A) (A)
                 (A) (A) (A) (A) (A) (A) (A) (A) (A) (A) (A) (A)
                 (A) (A) (A) (A) (A) (A) (A) (A) (A) (A) (A) (A)
                 (A) (A) (A) (A) (A) (A) (A) (A) (A) (A) (A) (A)
                 (A) (A) (A) (A) (A) (A) (A) (A) (A) (A) (A) (A)
                 (A) (A) (A) (A) (A) (A) (A) (A) (A) (A) (A) (A)
                 (A) (A) (A) (A) (A) (A) (A) (A) (A) (A) (A) (A)
                 (A) (A) (A) (A) (A) (A) (A) (A) (A) (A) (A) (A)
                 (A) (A) (A) (A) (A) (A) (A) (A) (A) (A) (A) (A)
                 (A) (A) (A) (A) (A) (A) (A) (A) (A) (A) (A) (A)
                 (A) (A) (A) (A) (A) (A) (A) (A) (A) (A) (A) (A)
                 (A) (A) (A) (A) (A) (A) (A) (A) (A) (A) (A) (A)
                 (A) (A) (A) (A) (A) (A) (A) (A) (A) (A) (A) (A)
                 (A) (A) (A) (A) (A) (A) (A) (A) (A) (A) (A) (A)
                 (A) (A) (A) (A) (A) (A) (A) (A) (A) (A) (A) (A)
                 (A) (A) (A) (A) (A) (A) (A) (A) (A) (A) (A) (A)
                 (A) (A) (A) (A) (A) (A) (A) (A) (A) (A) (A) (A)
                 (A) (A) (A) (A) (A) (A) (A) (A) (A) (A) (A) (A)
                 (A) (A) (A) (A) (A) (A) (A) (A) (A) (A) (A) (A)
                 (A) (A) (A) (A) (A) (A) (A) (A) (A) (A) (A) (A)
                 (A) (A) (A) (A) (A) (A) (A) (A) (A) (A) (A) (A)
                 (A) (A) (A) (A) (A) (A) (A) (A) (A) (A) (A) (A)
                 (A) (A) (A) (A) (A) (A) (A) (A) (A) (A) (A) (A)
                 (A) (A) (A) (A) (A) (A) (A) (A) (A) (A) (A) (A)
                 (A) (A) (A) (A) (A)
 The electronic state is 1-A.
 Alpha  occ. eigenvalues --  -90.17876 -25.35485 -25.35130 -25.35028 -19.75338
 Alpha  occ. eigenvalues --  -19.67459 -19.66812 -19.65157 -19.65145 -14.99419
 Alpha  occ. eigenvalues --  -10.90519 -10.66208 -10.62750 -10.61400 -10.60342
 Alpha  occ. eigenvalues --  -10.59196 -10.58823 -10.58695 -10.58383 -10.58086
 Alpha  occ. eigenvalues --  -10.57550  -8.50594  -6.42820  -6.42660  -6.42537
 Alpha  occ. eigenvalues --   -1.52936  -1.44773  -1.44016  -1.38400  -1.30934
 Alpha  occ. eigenvalues --   -1.22133  -1.18104  -1.15541  -0.99441  -0.95242
 Alpha  occ. eigenvalues --   -0.93085  -0.90549  -0.86437  -0.85103  -0.83191
 Alpha  occ. eigenvalues --   -0.80512  -0.78051  -0.76434  -0.75818  -0.74219
 Alpha  occ. eigenvalues --   -0.71731  -0.68332  -0.66183  -0.65130  -0.64697
 Alpha  occ. eigenvalues --   -0.64397  -0.63410  -0.62738  -0.61439  -0.61237
 Alpha  occ. eigenvalues --   -0.60342  -0.60032  -0.59807  -0.58554  -0.57581
 Alpha  occ. eigenvalues --   -0.55988  -0.55281  -0.53663  -0.53413  -0.52023
 Alpha  occ. eigenvalues --   -0.51578  -0.50108  -0.49737  -0.47761  -0.47547
 Alpha  occ. eigenvalues --   -0.47353  -0.46939  -0.45293  -0.43854  -0.43462
 Alpha  occ. eigenvalues --   -0.41679  -0.40813  -0.39238  -0.37639  -0.37526
 Alpha  occ. eigenvalues --   -0.37131  -0.33121  -0.30983
 Alpha virt. eigenvalues --   -0.06266  -0.02509  -0.00139   0.00451   0.02932
 Alpha virt. eigenvalues --    0.05996   0.07398   0.07803   0.09455   0.10585
 Alpha virt. eigenvalues --    0.11664   0.12828   0.13884   0.14936   0.15951
 Alpha virt. eigenvalues --    0.16864   0.18068   0.18139   0.19418   0.19733
 Alpha virt. eigenvalues --    0.20383   0.20807   0.21634   0.22585   0.23756
 Alpha virt. eigenvalues --    0.24692   0.25771   0.26863   0.27879   0.28506
 Alpha virt. eigenvalues --    0.29416   0.30992   0.31223   0.31982   0.32912
 Alpha virt. eigenvalues --    0.33803   0.35303   0.36427   0.37012   0.37529
 Alpha virt. eigenvalues --    0.38244   0.39369   0.39722   0.41450   0.41761
 Alpha virt. eigenvalues --    0.42528   0.43074   0.43413   0.43995   0.44533
 Alpha virt. eigenvalues --    0.45109   0.46020   0.46362   0.47047   0.47753
 Alpha virt. eigenvalues --    0.49579   0.50113   0.50950   0.51459   0.51596
 Alpha virt. eigenvalues --    0.52899   0.53029   0.53808   0.54040   0.54404
 Alpha virt. eigenvalues --    0.56697   0.57100   0.58376   0.58916   0.60065
 Alpha virt. eigenvalues --    0.60638   0.60877   0.61436   0.61800   0.62059
 Alpha virt. eigenvalues --    0.63025   0.63317   0.64011   0.65013   0.65680
 Alpha virt. eigenvalues --    0.66424   0.67325   0.67860   0.68413   0.68995
 Alpha virt. eigenvalues --    0.69376   0.69931   0.70445   0.70638   0.70920
 Alpha virt. eigenvalues --    0.71749   0.72427   0.72891   0.73142   0.74062
 Alpha virt. eigenvalues --    0.74207   0.75344   0.76243   0.77002   0.77713
 Alpha virt. eigenvalues --    0.78425   0.78808   0.80014   0.80976   0.82041
 Alpha virt. eigenvalues --    0.82412   0.83317   0.84945   0.86478   0.87263
 Alpha virt. eigenvalues --    0.88132   0.89972   0.91675   0.93092   0.94657
 Alpha virt. eigenvalues --    0.96621   0.97372   0.98089   0.99327   1.00421
 Alpha virt. eigenvalues --    1.01224   1.03043   1.06006   1.06994   1.08261
 Alpha virt. eigenvalues --    1.09129   1.09408   1.12554   1.13185   1.15100
 Alpha virt. eigenvalues --    1.18010   1.19089   1.21295   1.22442   1.23793
 Alpha virt. eigenvalues --    1.24858   1.27751   1.28272   1.28416   1.29603
 Alpha virt. eigenvalues --    1.31304   1.32072   1.32670   1.33892   1.35127
 Alpha virt. eigenvalues --    1.37392   1.39237   1.40958   1.43077   1.47292
 Alpha virt. eigenvalues --    1.48096   1.48911   1.50132   1.52470   1.52781
 Alpha virt. eigenvalues --    1.54667   1.55604   1.56946   1.57413   1.58397
 Alpha virt. eigenvalues --    1.58830   1.60931   1.61303   1.63676   1.64641
 Alpha virt. eigenvalues --    1.65550   1.66409   1.67799   1.69354   1.70269
 Alpha virt. eigenvalues --    1.71666   1.72227   1.75021   1.75322   1.76165
 Alpha virt. eigenvalues --    1.76458   1.76850   1.77856   1.78533   1.79479
 Alpha virt. eigenvalues --    1.79802   1.80630   1.82108   1.82964   1.83308
 Alpha virt. eigenvalues --    1.83952   1.84577   1.86072   1.86751   1.87899
 Alpha virt. eigenvalues --    1.88280   1.90013   1.90859   1.91678   1.92671
 Alpha virt. eigenvalues --    1.93475   1.94475   1.94860   1.95914   1.96605
 Alpha virt. eigenvalues --    1.97177   1.98760   2.00695   2.01669   2.03063
 Alpha virt. eigenvalues --    2.03945   2.04790   2.05215   2.06829   2.07331
 Alpha virt. eigenvalues --    2.08188   2.09293   2.09552   2.10069   2.10279
 Alpha virt. eigenvalues --    2.11119   2.12288   2.12487   2.15359   2.16028
 Alpha virt. eigenvalues --    2.16973   2.17316   2.19291   2.20582   2.20735
 Alpha virt. eigenvalues --    2.22037   2.23510   2.25701   2.27260   2.27488
 Alpha virt. eigenvalues --    2.28370   2.29145   2.30288   2.30564   2.33445
 Alpha virt. eigenvalues --    2.33865   2.35447   2.36384   2.37480   2.38274
 Alpha virt. eigenvalues --    2.39039   2.39688   2.40087   2.41720   2.42981
 Alpha virt. eigenvalues --    2.43615   2.44303   2.46536   2.47808   2.48964
 Alpha virt. eigenvalues --    2.51856   2.52828   2.53670   2.54090   2.57056
 Alpha virt. eigenvalues --    2.59189   2.60381   2.62013   2.63574   2.64230
 Alpha virt. eigenvalues --    2.65894   2.67507   2.70690   2.72976   2.74695
 Alpha virt. eigenvalues --    2.75680   2.77255   2.78222   2.79256   2.80284
 Alpha virt. eigenvalues --    2.80496   2.81742   2.84004   2.84393   2.86006
 Alpha virt. eigenvalues --    2.87291   2.88561   2.91026   2.92218   2.95114
 Alpha virt. eigenvalues --    2.96463   2.97503   2.98018   2.98526   2.99768
 Alpha virt. eigenvalues --    3.02086   3.04248   3.06503   3.07149   3.09280
 Alpha virt. eigenvalues --    3.12840   3.14250   3.16143   3.18527   3.19382
 Alpha virt. eigenvalues --    3.25907   3.27848   3.28769   3.30836   3.35799
 Alpha virt. eigenvalues --    3.36463   3.41822   3.45768   3.51687   3.59545
 Alpha virt. eigenvalues --    3.63099   3.66492   3.70519   3.75329   3.76609
 Alpha virt. eigenvalues --    3.92199   3.93557   3.94235   3.96314   4.07170
 Alpha virt. eigenvalues --    4.11795   4.15870   4.17184   4.26489   4.26690
 Alpha virt. eigenvalues --    4.33553   4.56127   4.58792   4.69092   4.71989
 Alpha virt. eigenvalues --    4.84549   5.04910   5.08110   5.08991   5.09203
 Alpha virt. eigenvalues --    5.12217   5.12323   5.12671   5.13493   5.14386
 Alpha virt. eigenvalues --    5.15212   5.15470   5.16844   5.17023   5.17499
 Alpha virt. eigenvalues --    5.19588   5.20234   5.23567   5.24414   5.27761
 Alpha virt. eigenvalues --    5.29719   5.35017   5.36394   5.39753   5.44368
 Alpha virt. eigenvalues --    5.51516   5.53490   5.54648   5.55275   5.61549
 Alpha virt. eigenvalues --    5.67480   5.69917   6.05815   6.24107   6.28378
 Alpha virt. eigenvalues --    6.28849   6.29188   6.31912   6.33126   6.36923
 Alpha virt. eigenvalues --    6.37194   6.39950   6.40392   6.40646   6.47590
 Alpha virt. eigenvalues --    6.53762   6.58687   6.60512   6.67502   6.68995
 Alpha virt. eigenvalues --    6.71566   6.72752   6.76755   6.77062   6.77565
 Alpha virt. eigenvalues --    6.77891   6.78591   6.79065   6.79383   6.80545
 Alpha virt. eigenvalues --    6.80598   6.81008   6.81539   6.81801   6.82115
 Alpha virt. eigenvalues --    6.82678   6.82925   6.84235   6.85528   6.85642
 Alpha virt. eigenvalues --    6.86426   6.86919   6.87152   6.95518   6.98989
 Alpha virt. eigenvalues --    7.01515   7.02772   7.03259   7.11549   7.11939
 Alpha virt. eigenvalues --    7.15678   7.16696   7.26712   7.37440   8.18502
 Alpha virt. eigenvalues --    8.21094   8.21152   8.23440   8.24050   8.25726
 Alpha virt. eigenvalues --    8.33791   8.37200   8.38133   8.50714   8.51110
 Alpha virt. eigenvalues --    8.55370   8.69505   8.69972   8.72331   9.17904
 Alpha virt. eigenvalues --    9.33939   9.50027  21.62930  32.33005  43.63747
 Alpha virt. eigenvalues --   43.83285  43.86277  44.11563  44.14358  57.05437
 Alpha virt. eigenvalues --   57.09190  57.23884
          Condensed to atoms (all electrons):
               1          2          3          4          5          6
     1  C    5.092834   0.250885   0.044962  -0.130891   0.106899   0.273207
     2  C    0.250885   5.448169   0.260684   0.102051  -0.176753   0.109884
     3  C    0.044962   0.260684   5.080370   0.283044   0.105552  -0.137056
     4  C   -0.130891   0.102051   0.283044   5.167006   0.263683   0.028310
     5  C    0.106899  -0.176753   0.105552   0.263683   5.270725   0.265063
     6  C    0.273207   0.109884  -0.137056   0.028310   0.265063   5.158928
     7  H    0.470663  -0.062903   0.013888  -0.002088   0.016460  -0.074787
     8  H    0.013516  -0.056102   0.461624  -0.072155   0.015398  -0.001949
     9  H   -0.001927   0.014917  -0.064672   0.456930  -0.066687   0.014213
    10  H   -0.065582   0.015507  -0.001831   0.013991  -0.055249   0.480489
    11  N   -0.072668   0.260925  -0.071958   0.012586   0.000616   0.013904
    12  O    0.010510  -0.144558   0.008476  -0.000283  -0.000053   0.001485
    13  O    0.008360  -0.145217   0.010811   0.001190  -0.000052  -0.000296
    14  C    0.009854   0.001472   0.010433  -0.080511   0.294304  -0.059679
    15  C    0.001032  -0.000279  -0.000074   0.015519  -0.022121  -0.040405
    16  C    0.000013  -0.000000   0.000003  -0.000232   0.007944  -0.000134
    17  H   -0.000001   0.000000  -0.000000   0.000004   0.000284   0.000000
    18  H   -0.000000  -0.000000  -0.000000   0.000015  -0.000293   0.000054
    19  H    0.000001  -0.000000  -0.000000   0.000008  -0.000310   0.000016
    20  C   -0.000159  -0.000006   0.000684  -0.009214  -0.050910   0.007835
    21  H    0.000039  -0.000083   0.001252   0.006783  -0.021220  -0.000806
    22  H    0.000006   0.000000   0.000022   0.001552  -0.001338  -0.000256
    23  H    0.000002   0.000003  -0.000036   0.000198   0.007958  -0.000081
    24  S    0.000500   0.000194  -0.000178   0.000001  -0.003563   0.000438
    25  O    0.000157  -0.000001   0.000001  -0.000003   0.000266  -0.005327
    26  O   -0.000777  -0.000275   0.000282  -0.000665  -0.013189  -0.019410
    27  C    0.000023   0.000000  -0.000000  -0.000010  -0.000180  -0.000068
    28  F   -0.000000  -0.000000  -0.000000   0.000000   0.000002   0.000001
    29  F   -0.000000   0.000000  -0.000000   0.000000  -0.000002   0.000007
    30  F    0.000000  -0.000000   0.000000  -0.000001  -0.000065   0.000074
    31  O    0.002840  -0.000217  -0.000013  -0.000419   0.003180  -0.062385
               7          8          9         10         11         12
     1  C    0.470663   0.013516  -0.001927  -0.065582  -0.072668   0.010510
     2  C   -0.062903  -0.056102   0.014917   0.015507   0.260925  -0.144558
     3  C    0.013888   0.461624  -0.064672  -0.001831  -0.071958   0.008476
     4  C   -0.002088  -0.072155   0.456930   0.013991   0.012586  -0.000283
     5  C    0.016460   0.015398  -0.066687  -0.055249   0.000616  -0.000053
     6  C   -0.074787  -0.001949   0.014213   0.480489   0.013904   0.001485
     7  H    0.617605  -0.000136   0.000015  -0.013216  -0.018124   0.007147
     8  H   -0.000136   0.620617  -0.011796   0.000020  -0.018576   0.000388
     9  H    0.000015  -0.011796   0.669011  -0.000121  -0.000337   0.000007
    10  H   -0.013216   0.000020  -0.000121   0.706838  -0.000418  -0.000022
    11  N   -0.018124  -0.018576  -0.000337  -0.000418   5.657326   0.440317
    12  O    0.007147   0.000388   0.000007  -0.000022   0.440317   8.171426
    13  O    0.000380   0.007451   0.000006   0.000007   0.437352  -0.174156
    14  C   -0.000327  -0.000291  -0.024174  -0.024075   0.000116  -0.000000
    15  C    0.000075   0.000006   0.000538   0.004842  -0.000005   0.000000
    16  C    0.000000  -0.000000   0.000003  -0.000279  -0.000000  -0.000000
    17  H   -0.000000  -0.000000  -0.000008   0.000038   0.000000   0.000000
    18  H    0.000000   0.000000   0.000001  -0.000072  -0.000000   0.000000
    19  H   -0.000000   0.000000   0.000000   0.000079   0.000000   0.000000
    20  C    0.000002  -0.000006   0.006060  -0.000269   0.000000   0.000000
    21  H    0.000000   0.000035  -0.000539  -0.000001   0.000000   0.000000
    22  H   -0.000000  -0.000000   0.000295  -0.000003  -0.000000   0.000000
    23  H   -0.000000  -0.000000   0.000065   0.000014  -0.000000   0.000000
    24  S   -0.000321  -0.000000   0.000008  -0.012629   0.000008  -0.000000
    25  O    0.000239  -0.000000   0.000000   0.007662  -0.000000   0.000000
    26  O    0.000320  -0.000001  -0.000009  -0.015547  -0.000003  -0.000001
    27  C    0.000002   0.000000  -0.000000  -0.000663   0.000000  -0.000000
    28  F   -0.000000  -0.000000   0.000000  -0.000013   0.000000  -0.000000
    29  F   -0.000000   0.000000   0.000000  -0.000006   0.000000   0.000000
    30  F   -0.000000   0.000000  -0.000000  -0.000141   0.000000   0.000000
    31  O    0.000332  -0.000000  -0.000013  -0.064455   0.000005   0.000000
              13         14         15         16         17         18
     1  C    0.008360   0.009854   0.001032   0.000013  -0.000001  -0.000000
     2  C   -0.145217   0.001472  -0.000279  -0.000000   0.000000  -0.000000
     3  C    0.010811   0.010433  -0.000074   0.000003  -0.000000  -0.000000
     4  C    0.001190  -0.080511   0.015519  -0.000232   0.000004   0.000015
     5  C   -0.000052   0.294304  -0.022121   0.007944   0.000284  -0.000293
     6  C   -0.000296  -0.059679  -0.040405  -0.000134   0.000000   0.000054
     7  H    0.000380  -0.000327   0.000075   0.000000  -0.000000   0.000000
     8  H    0.007451  -0.000291   0.000006  -0.000000  -0.000000   0.000000
     9  H    0.000006  -0.024174   0.000538   0.000003  -0.000008   0.000001
    10  H    0.000007  -0.024075   0.004842  -0.000279   0.000038  -0.000072
    11  N    0.437352   0.000116  -0.000005  -0.000000   0.000000  -0.000000
    12  O   -0.174156  -0.000000   0.000000  -0.000000   0.000000   0.000000
    13  O    8.180333  -0.000000   0.000000  -0.000000   0.000000   0.000000
    14  C   -0.000000   5.133917   0.542825  -0.078913  -0.025685  -0.007698
    15  C    0.000000   0.542825   5.226373   0.423719   0.008337  -0.020634
    16  C   -0.000000  -0.078913   0.423719   4.481039   0.384590   0.415490
    17  H    0.000000  -0.025685   0.008337   0.384590   0.607664  -0.013067
    18  H    0.000000  -0.007698  -0.020634   0.415490  -0.013067   0.596801
    19  H    0.000000   0.008491  -0.019195   0.383922  -0.010161  -0.017583
    20  C    0.000000   0.416516  -0.073284  -0.003043  -0.000154   0.002100
    21  H    0.000000  -0.003026   0.010194   0.000351   0.000551  -0.000091
    22  H    0.000000  -0.004728  -0.009452   0.003033  -0.001653   0.001168
    23  H    0.000000  -0.004760  -0.023315   0.001704  -0.002786  -0.002060
    24  S   -0.000000  -0.000589  -0.047849  -0.009517   0.000259  -0.000308
    25  O   -0.000000  -0.000067   0.003078  -0.000031   0.000000  -0.000013
    26  O   -0.000000   0.002195  -0.001953  -0.000208  -0.000011   0.000305
    27  C   -0.000000   0.000832   0.013319   0.010192  -0.000358   0.006000
    28  F   -0.000000  -0.000106  -0.001644  -0.001050   0.000040  -0.000658
    29  F    0.000000  -0.000006  -0.000062  -0.000077   0.000003  -0.000035
    30  F    0.000000   0.000703  -0.003956  -0.039588   0.001203  -0.040047
    31  O   -0.000000  -0.055352   0.116955  -0.055643   0.004869   0.001964
              19         20         21         22         23         24
     1  C    0.000001  -0.000159   0.000039   0.000006   0.000002   0.000500
     2  C   -0.000000  -0.000006  -0.000083   0.000000   0.000003   0.000194
     3  C   -0.000000   0.000684   0.001252   0.000022  -0.000036  -0.000178
     4  C    0.000008  -0.009214   0.006783   0.001552   0.000198   0.000001
     5  C   -0.000310  -0.050910  -0.021220  -0.001338   0.007958  -0.003563
     6  C    0.000016   0.007835  -0.000806  -0.000256  -0.000081   0.000438
     7  H   -0.000000   0.000002   0.000000  -0.000000  -0.000000  -0.000321
     8  H    0.000000  -0.000006   0.000035  -0.000000  -0.000000  -0.000000
     9  H    0.000000   0.006060  -0.000539   0.000295   0.000065   0.000008
    10  H    0.000079  -0.000269  -0.000001  -0.000003   0.000014  -0.012629
    11  N    0.000000   0.000000   0.000000  -0.000000  -0.000000   0.000008
    12  O    0.000000   0.000000   0.000000   0.000000   0.000000  -0.000000
    13  O    0.000000   0.000000   0.000000   0.000000   0.000000  -0.000000
    14  C    0.008491   0.416516  -0.003026  -0.004728  -0.004760  -0.000589
    15  C   -0.019195  -0.073284   0.010194  -0.009452  -0.023315  -0.047849
    16  C    0.383922  -0.003043   0.000351   0.003033   0.001704  -0.009517
    17  H   -0.010161  -0.000154   0.000551  -0.001653  -0.002786   0.000259
    18  H   -0.017583   0.002100  -0.000091   0.001168  -0.002060  -0.000308
    19  H    0.596237   0.000814  -0.000005  -0.000118   0.000202  -0.001804
    20  C    0.000814   4.472914   0.378237   0.388363   0.393808  -0.000186
    21  H   -0.000005   0.378237   0.605610  -0.019351  -0.014618  -0.000030
    22  H   -0.000118   0.388363  -0.019351   0.585091  -0.014769   0.000068
    23  H    0.000202   0.393808  -0.014618  -0.014769   0.613629   0.000047
    24  S   -0.001804  -0.000186  -0.000030   0.000068   0.000047  13.926098
    25  O    0.000036  -0.000001   0.000000  -0.000000   0.000000   0.565599
    26  O    0.000050  -0.000276   0.000010   0.000178  -0.000012   0.529388
    27  C    0.002863   0.000055   0.000001  -0.000035   0.000001   0.264011
    28  F   -0.000192  -0.000001   0.000000   0.000001  -0.000000  -0.051754
    29  F    0.000013  -0.000000  -0.000000   0.000000  -0.000000  -0.052407
    30  F    0.000128  -0.000030  -0.000001   0.000081   0.000013  -0.044318
    31  O   -0.001226   0.005844  -0.000190  -0.000070  -0.000106   0.223190
              25         26         27         28         29         30
     1  C    0.000157  -0.000777   0.000023  -0.000000  -0.000000   0.000000
     2  C   -0.000001  -0.000275   0.000000  -0.000000   0.000000  -0.000000
     3  C    0.000001   0.000282  -0.000000  -0.000000  -0.000000   0.000000
     4  C   -0.000003  -0.000665  -0.000010   0.000000   0.000000  -0.000001
     5  C    0.000266  -0.013189  -0.000180   0.000002  -0.000002  -0.000065
     6  C   -0.005327  -0.019410  -0.000068   0.000001   0.000007   0.000074
     7  H    0.000239   0.000320   0.000002  -0.000000  -0.000000  -0.000000
     8  H   -0.000000  -0.000001   0.000000  -0.000000   0.000000   0.000000
     9  H    0.000000  -0.000009  -0.000000   0.000000   0.000000  -0.000000
    10  H    0.007662  -0.015547  -0.000663  -0.000013  -0.000006  -0.000141
    11  N   -0.000000  -0.000003   0.000000   0.000000   0.000000   0.000000
    12  O    0.000000  -0.000001  -0.000000  -0.000000   0.000000   0.000000
    13  O   -0.000000  -0.000000  -0.000000  -0.000000   0.000000   0.000000
    14  C   -0.000067   0.002195   0.000832  -0.000106  -0.000006   0.000703
    15  C    0.003078  -0.001953   0.013319  -0.001644  -0.000062  -0.003956
    16  C   -0.000031  -0.000208   0.010192  -0.001050  -0.000077  -0.039588
    17  H    0.000000  -0.000011  -0.000358   0.000040   0.000003   0.001203
    18  H   -0.000013   0.000305   0.006000  -0.000658  -0.000035  -0.040047
    19  H    0.000036   0.000050   0.002863  -0.000192   0.000013   0.000128
    20  C   -0.000001  -0.000276   0.000055  -0.000001  -0.000000  -0.000030
    21  H    0.000000   0.000010   0.000001   0.000000  -0.000000  -0.000001
    22  H   -0.000000   0.000178  -0.000035   0.000001   0.000000   0.000081
    23  H    0.000000  -0.000012   0.000001  -0.000000  -0.000000   0.000013
    24  S    0.565599   0.529388   0.264011  -0.051754  -0.052407  -0.044318
    25  O    7.971360  -0.073602  -0.033860   0.000272   0.000203   0.001439
    26  O   -0.073602   8.061113  -0.029425   0.001243  -0.000026   0.000048
    27  C   -0.033860  -0.029425   4.296377   0.259271   0.291653   0.221759
    28  F    0.000272   0.001243   0.259271   9.118190  -0.065515  -0.061882
    29  F    0.000203  -0.000026   0.291653  -0.065515   9.080813  -0.062166
    30  F    0.001439   0.000048   0.221759  -0.061882  -0.062166   9.235118
    31  O   -0.028959  -0.040143  -0.020004   0.002018   0.000572   0.000008
              31
     1  C    0.002840
     2  C   -0.000217
     3  C   -0.000013
     4  C   -0.000419
     5  C    0.003180
     6  C   -0.062385
     7  H    0.000332
     8  H   -0.000000
     9  H   -0.000013
    10  H   -0.064455
    11  N    0.000005
    12  O    0.000000
    13  O   -0.000000
    14  C   -0.055352
    15  C    0.116955
    16  C   -0.055643
    17  H    0.004869
    18  H    0.001964
    19  H   -0.001226
    20  C    0.005844
    21  H   -0.000190
    22  H   -0.000070
    23  H   -0.000106
    24  S    0.223190
    25  O   -0.028959
    26  O   -0.040143
    27  C   -0.020004
    28  F    0.002018
    29  F    0.000572
    30  F    0.000008
    31  O    8.315874
 Mulliken charges:
               1
     1  C   -0.014293
     2  C    0.121702
     3  C   -0.006272
     4  C   -0.056399
     5  C    0.053651
     6  C    0.048732
     7  H    0.044774
     8  H    0.041960
     9  H    0.008216
    10  H    0.025104
    11  N    0.358932
    12  O   -0.320683
    13  O   -0.326167
    14  C   -0.051669
    15  C   -0.102584
    16  C    0.076711
    17  H    0.046043
    18  H    0.078662
    19  H    0.057733
    20  C    0.064307
    21  H    0.056899
    22  H    0.071915
    23  H    0.044898
    24  S    0.715645
    25  O   -0.408448
    26  O   -0.399600
    27  C    0.718246
    28  F   -0.198221
    29  F   -0.192960
    30  F   -0.208379
    31  O   -0.348455
 Sum of Mulliken charges =  -0.00000
 Mulliken charges with hydrogens summed into heavy atoms:
               1
     1  C    0.030481
     2  C    0.121702
     3  C    0.035688
     4  C   -0.048183
     5  C    0.053651
     6  C    0.073836
    11  N    0.358932
    12  O   -0.320683
    13  O   -0.326167
    14  C   -0.051669
    15  C   -0.102584
    16  C    0.259150
    20  C    0.238020
    24  S    0.715645
    25  O   -0.408448
    26  O   -0.399600
    27  C    0.718246
    28  F   -0.198221
    29  F   -0.192960
    30  F   -0.208379
    31  O   -0.348455
 Electronic spatial extent (au):  <R**2>=           7225.9382
 Charge=             -0.0000 electrons
 Dipole moment (field-independent basis, Debye):
    X=              6.7280    Y=              6.5748    Z=             -0.1348  Tot=              9.4081
 Quadrupole moment (field-independent basis, Debye-Ang):
   XX=           -148.9498   YY=           -122.8869   ZZ=           -128.1546
   XY=             -5.5224   XZ=              0.5698   YZ=              0.8422
 Traceless Quadrupole moment (field-independent basis, Debye-Ang):
   XX=            -15.6194   YY=             10.4436   ZZ=              5.1758
   XY=             -5.5224   XZ=              0.5698   YZ=              0.8422
 Octapole moment (field-independent basis, Debye-Ang**2):
  XXX=            298.6362  YYY=             22.2231  ZZZ=             12.1005  XYY=             30.9867
  XXY=             53.8118  XXZ=             -0.0269  XZZ=             19.0336  YZZ=             -9.8781
  YYZ=             15.1221  XYZ=             -8.6489
 Hexadecapole moment (field-independent basis, Debye-Ang**3):
 XXXX=          -7629.1304 YYYY=          -1843.3488 ZZZZ=           -470.6636 XXXY=           -318.0250
 XXXZ=            102.2145 YYYX=            -39.0255 YYYZ=             -5.7768 ZZZX=             27.3480
 ZZZY=             -0.0144 XXYY=          -1438.2691 XXZZ=          -1132.0806 YYZZ=           -392.9310
 XXYZ=            -15.3797 YYXZ=            -11.7301 ZZXY=              0.9506
 N-N= 2.025917510383D+03 E-N=-7.705786926734D+03  KE= 1.545033384986D+03
 Calling FoFJK, ICntrl=      2127 FMM=F ISym2X=0 I1Cent= 0 IOpClX= 0 NMat=1 NMatS=1 NMatT=0.
 ***** Axes restored to original set *****
 -------------------------------------------------------------------
 Center     Atomic                   Forces (Hartrees/Bohr)
 Number     Number              X              Y              Z
 -------------------------------------------------------------------
      1        6           0.014921164    0.001164094    0.009376771
      2        6           0.018348577   -0.000316199   -0.009500765
      3        6          -0.001302358   -0.000014460   -0.013235588
      4        6          -0.025215658   -0.000131186   -0.008548330
      5        6           0.031773672    0.001019617   -0.013505502
      6        6          -0.026899620    0.007291542    0.033671245
      7        1          -0.013452474   -0.000174901   -0.006096455
      8        1          -0.002085168   -0.000085093    0.014740644
      9        1           0.009685130   -0.000706098    0.009292337
     10        1          -0.021118437    0.011151092    0.018253563
     11        7          -0.009142036   -0.000223853    0.004621028
     12        8          -0.011397825    0.000131009   -0.036366465
     13        8           0.025791496    0.000085280    0.029601035
     14        6          -0.025266934    0.001786402    0.007714960
     15        6           0.031641439    0.007934028    0.018739471
     16        6          -0.037012896    0.007352114    0.008514899
     17        1           0.009950522    0.010124111    0.003817967
     18        1           0.015822798    0.002254558    0.000213615
     19        1          -0.000964728    0.009277391   -0.019236403
     20        6          -0.038506173    0.004691729   -0.018501830
     21        1           0.000965582    0.008535282    0.015788996
     22        1           0.007057806   -0.019582584    0.004596470
     23        1           0.013371052    0.007351953   -0.002597697
     24       16          -0.132148600   -0.009693080    0.064268167
     25        8           0.066637753    0.017823970    0.003894879
     26        8           0.042610698    0.016961928   -0.051154892
     27        6           0.036531576   -0.022529068   -0.034576225
     28        9          -0.000768135   -0.012914171    0.023306641
     29        9           0.007567731    0.034325456    0.008025262
     30        9          -0.031536496   -0.029948614   -0.019675759
     31        8           0.044140542   -0.052942247   -0.045442038
 -------------------------------------------------------------------
 Cartesian Forces:  Max     0.132148600 RMS     0.025836754

 GradGradGradGradGradGradGradGradGradGradGradGradGradGradGradGradGradGrad
 Berny optimization.
 FormGI is forming the generalized inverse of G from B-inverse, IUseBI=4.
 Internal  Forces:  Max     0.169283559 RMS     0.031637464
 Search for a local minimum.
 Step number   1 out of a maximum of  155
 All quantities printed in internal units (Hartrees-Bohrs-Radians)
 Mixed Optimization -- RFO/linear search
 Second derivative matrix not updated -- first step.
 ITU=  0
     Eigenvalues ---    0.00237   0.00237   0.00237   0.00635   0.00766
     Eigenvalues ---    0.00766   0.00935   0.01228   0.01295   0.01498
     Eigenvalues ---    0.01680   0.01693   0.02070   0.02070   0.02070
     Eigenvalues ---    0.02070   0.02070   0.02070   0.02070   0.02681
     Eigenvalues ---    0.07243   0.07243   0.07243   0.07243   0.08130
     Eigenvalues ---    0.08789   0.09110   0.09110   0.16000   0.16000
     Eigenvalues ---    0.16000   0.16000   0.16000   0.16000   0.16000
     Eigenvalues ---    0.16000   0.16000   0.16000   0.17310   0.21379
     Eigenvalues ---    0.22000   0.22981   0.24000   0.25000   0.25000
     Eigenvalues ---    0.25000   0.25000   0.25000   0.25000   0.25000
     Eigenvalues ---    0.25000   0.25000   0.25000   0.25000   0.25000
     Eigenvalues ---    0.25000   0.27758   0.28519   0.28519   0.28519
     Eigenvalues ---    0.35740   0.37230   0.37230   0.37230   0.37230
     Eigenvalues ---    0.37230   0.37230   0.37230   0.37230   0.37230
     Eigenvalues ---    0.37230   0.39757   0.40989   0.41268   0.41640
     Eigenvalues ---    0.45389   0.45389   0.45389   0.45389   0.53930
     Eigenvalues ---    0.55021   0.55021   0.55021   0.87694   0.87694
     Eigenvalues ---    1.06448   1.06448
 RFO step:  Lambda=-2.73842839D-01 EMin= 2.36824211D-03
 Linear search not attempted -- first point.
 Maximum step size (   0.300) exceeded in Quadratic search.
    -- Step size scaled by   0.439
 Iteration  1 RMS(Cart)=  0.24356653 RMS(Int)=  0.01076783
 Iteration  2 RMS(Cart)=  0.05465501 RMS(Int)=  0.00043624
 Iteration  3 RMS(Cart)=  0.00109491 RMS(Int)=  0.00019384
 Iteration  4 RMS(Cart)=  0.00000058 RMS(Int)=  0.00019384
 Variable       Old X    -DE/DX   Delta X   Delta X   Delta X     New X
                                 (Linear)    (Quad)   (Total)
    R1        2.64826  -0.01894   0.00000  -0.01183  -0.01187   2.63639
    R2        2.64826  -0.00945   0.00000  -0.00556  -0.00556   2.64270
    R3        2.02201   0.01470   0.00000   0.00998   0.00998   2.03199
    R4        2.64826  -0.02375   0.00000  -0.01487  -0.01490   2.63336
    R5        2.77790  -0.00562   0.00000  -0.00391  -0.00391   2.77399
    R6        2.64826  -0.01276   0.00000  -0.00784  -0.00783   2.64043
    R7        2.02201   0.01474   0.00000   0.01001   0.01001   2.03202
    R8        2.64826   0.00956   0.00000   0.00617   0.00621   2.65447
    R9        2.02201   0.01303   0.00000   0.00885   0.00885   2.03086
   R10        2.64826   0.02183   0.00000   0.01372   0.01375   2.66201
   R11        2.91018   0.02489   0.00000   0.01954   0.01954   2.92972
   R12        2.02201  -0.01825   0.00000  -0.01240  -0.01240   2.00961
   R13        2.26162   0.02805   0.00000   0.00920   0.00920   2.27082
   R14        2.26162   0.02960   0.00000   0.00971   0.00971   2.27133
   R15        2.56096   0.03931   0.00000   0.02121   0.02121   2.58217
   R16        2.91018  -0.01518   0.00000  -0.01192  -0.01192   2.89826
   R17        2.91018  -0.00723   0.00000  -0.00567  -0.00567   2.90451
   R18        2.70231  -0.00293   0.00000  -0.00188  -0.00188   2.70043
   R19        2.02201   0.01377   0.00000   0.00935   0.00935   2.03136
   R20        2.02201   0.00240   0.00000   0.00163   0.00163   2.02364
   R21        2.02201   0.02130   0.00000   0.01447   0.01447   2.03647
   R22        2.02201   0.01770   0.00000   0.01202   0.01202   2.03403
   R23        2.02201   0.02126   0.00000   0.01444   0.01444   2.03645
   R24        2.02201   0.01419   0.00000   0.00964   0.00964   2.03164
   R25        2.77714  -0.05966   0.00000  -0.02275  -0.02275   2.75439
   R26        2.77714  -0.05779   0.00000  -0.02204  -0.02204   2.75511
   R27        3.36371   0.03525   0.00000   0.02805   0.02805   3.39177
   R28        3.15584   0.00983   0.00000   0.00642   0.00642   3.16227
   R29        2.55113  -0.02655   0.00000  -0.01414  -0.01414   2.53699
   R30        2.55113  -0.03588   0.00000  -0.01911  -0.01911   2.53202
   R31        2.55113  -0.03715   0.00000  -0.01978  -0.01978   2.53135
    A1        2.09440   0.00289   0.00000   0.00190   0.00185   2.09625
    A2        2.09440  -0.00291   0.00000  -0.00243  -0.00241   2.09199
    A3        2.09440   0.00002   0.00000   0.00053   0.00055   2.09495
    A4        2.09440   0.00530   0.00000   0.00282   0.00276   2.09715
    A5        2.09440  -0.00157   0.00000  -0.00051  -0.00047   2.09392
    A6        2.09440  -0.00373   0.00000  -0.00232  -0.00228   2.09211
    A7        2.09440  -0.00469   0.00000  -0.00548  -0.00551   2.08889
    A8        2.09440   0.00024   0.00000   0.00061   0.00062   2.09502
    A9        2.09440   0.00445   0.00000   0.00487   0.00488   2.09928
   A10        2.09440   0.02271   0.00000   0.02032   0.02036   2.11475
   A11        2.09440  -0.01459   0.00000  -0.01343  -0.01346   2.08094
   A12        2.09440  -0.00812   0.00000  -0.00688  -0.00690   2.08749
   A13        2.09440  -0.03617   0.00000  -0.02918  -0.02913   2.06527
   A14        2.09440  -0.07836   0.00000  -0.06620  -0.06624   2.02816
   A15        2.09440   0.11452   0.00000   0.09538   0.09533   2.18972
   A16        2.09440   0.00996   0.00000   0.00963   0.00965   2.10404
   A17        2.09440  -0.02633   0.00000  -0.02641  -0.02643   2.06796
   A18        2.09440   0.01637   0.00000   0.01678   0.01676   2.11116
   A19        2.09440  -0.01944   0.00000  -0.01629  -0.01629   2.07811
   A20        2.09440  -0.01945   0.00000  -0.01629  -0.01629   2.07811
   A21        2.09440   0.03889   0.00000   0.03258   0.03258   2.12697
   A22        2.09440   0.16350   0.00000   0.13697   0.13696   2.23136
   A23        2.09440  -0.09615   0.00000  -0.08055  -0.08055   2.01384
   A24        2.09440  -0.06735   0.00000  -0.05642  -0.05642   2.03797
   A25        2.09440  -0.02159   0.00000  -0.01808  -0.01815   2.07624
   A26        2.09440   0.07492   0.00000   0.06276   0.06267   2.15707
   A27        2.09440  -0.05333   0.00000  -0.04468  -0.04474   2.04965
   A28        1.91063  -0.00188   0.00000  -0.00240  -0.00242   1.90822
   A29        1.91063   0.02049   0.00000   0.02126   0.02122   1.93185
   A30        1.91063  -0.00081   0.00000  -0.00085  -0.00089   1.90974
   A31        1.91063  -0.00896   0.00000  -0.00900  -0.00901   1.90162
   A32        1.91063  -0.00389   0.00000  -0.00500  -0.00501   1.90562
   A33        1.91063  -0.00494   0.00000  -0.00400  -0.00406   1.90658
   A34        1.91063   0.00229   0.00000   0.00219   0.00219   1.91282
   A35        1.91063   0.00029   0.00000   0.00032   0.00032   1.91095
   A36        1.91063   0.00782   0.00000   0.00801   0.00800   1.91863
   A37        1.91063  -0.00224   0.00000  -0.00246  -0.00246   1.90817
   A38        1.91063  -0.00531   0.00000  -0.00543  -0.00544   1.90520
   A39        1.91063  -0.00285   0.00000  -0.00263  -0.00264   1.90799
   A40        1.91063   0.04412   0.00000   0.04063   0.04006   1.95070
   A41        1.91063  -0.03780   0.00000  -0.03597  -0.03573   1.87490
   A42        1.91063  -0.03942   0.00000  -0.03776  -0.03700   1.87363
   A43        1.91063  -0.04438   0.00000  -0.03625  -0.03670   1.87394
   A44        1.91063   0.00174   0.00000   0.00774   0.00815   1.91879
   A45        1.91063   0.07574   0.00000   0.06161   0.06206   1.97270
   A46        1.91063   0.00406   0.00000   0.00481   0.00466   1.91530
   A47        1.91063  -0.01634   0.00000  -0.01571  -0.01564   1.89499
   A48        1.91063   0.03079   0.00000   0.02641   0.02633   1.93697
   A49        1.91063   0.00193   0.00000   0.00039   0.00039   1.91102
   A50        1.91063  -0.00358   0.00000   0.00104   0.00077   1.91141
   A51        1.91063  -0.01686   0.00000  -0.01693  -0.01680   1.89383
   A52        1.91063   0.16928   0.00000   0.14181   0.14181   2.05244
    D1        0.00000   0.00140   0.00000   0.00211   0.00206   0.00206
    D2        3.14159   0.00023   0.00000   0.00033   0.00028  -3.14131
    D3        3.14159   0.00238   0.00000   0.00357   0.00360  -3.13799
    D4        0.00000   0.00121   0.00000   0.00180   0.00182   0.00182
    D5        0.00000   0.00056   0.00000   0.00087   0.00098   0.00098
    D6        3.14159   0.00529   0.00000   0.00790   0.00799  -3.13360
    D7        3.14159  -0.00041   0.00000  -0.00060  -0.00056   3.14103
    D8       -0.00000   0.00431   0.00000   0.00644   0.00645   0.00645
    D9       -0.00000  -0.00071   0.00000  -0.00108  -0.00114  -0.00114
   D10        3.14159  -0.00117   0.00000  -0.00178  -0.00177   3.13983
   D11        3.14159   0.00045   0.00000   0.00069   0.00064  -3.14095
   D12        0.00000  -0.00001   0.00000  -0.00001   0.00001   0.00001
   D13        0.00000   0.00046   0.00000   0.00069   0.00069   0.00069
   D14        3.14159   0.00066   0.00000   0.00101   0.00101  -3.14058
   D15        3.14159  -0.00071   0.00000  -0.00108  -0.00108   3.14051
   D16       -0.00000  -0.00050   0.00000  -0.00076  -0.00076  -0.00076
   D17        0.00000  -0.00194   0.00000  -0.00291  -0.00286  -0.00286
   D18        3.14159  -0.00032   0.00000  -0.00049  -0.00037   3.14122
   D19        3.14159  -0.00147   0.00000  -0.00222  -0.00223   3.13936
   D20       -0.00000   0.00014   0.00000   0.00021   0.00026   0.00026
   D21        0.00000   0.00390   0.00000   0.00589   0.00578   0.00578
   D22        3.14159  -0.00207   0.00000  -0.00317  -0.00273   3.13886
   D23        3.14159   0.00228   0.00000   0.00347   0.00328  -3.13831
   D24       -0.00000  -0.00369   0.00000  -0.00559  -0.00523  -0.00523
   D25       -0.00000  -0.00321   0.00000  -0.00487  -0.00482  -0.00482
   D26        3.14159  -0.00794   0.00000  -0.01190  -0.01201   3.12958
   D27        3.14159   0.00275   0.00000   0.00419   0.00456  -3.13703
   D28        0.00000  -0.00198   0.00000  -0.00284  -0.00263  -0.00263
   D29        3.14159  -0.01207   0.00000  -0.01945  -0.01925   3.12234
   D30        0.00000  -0.01565   0.00000  -0.02500  -0.02506  -0.02506
   D31       -0.00000  -0.01803   0.00000  -0.02851  -0.02846  -0.02846
   D32        3.14159  -0.02162   0.00000  -0.03406  -0.03426   3.10733
   D33        3.14159  -0.03290   0.00000  -0.04872  -0.04925   3.09234
   D34       -0.00000  -0.01833   0.00000  -0.02638  -0.02616  -0.02616
   D35       -0.00000  -0.02931   0.00000  -0.04316  -0.04338  -0.04338
   D36        3.14159  -0.01474   0.00000  -0.02082  -0.02029   3.12130
   D37       -0.52360   0.00228   0.00000   0.00347   0.00326  -0.52034
   D38        1.57080   0.00112   0.00000   0.00199   0.00177   1.57257
   D39       -2.61799   0.00260   0.00000   0.00387   0.00365  -2.61434
   D40        2.61799  -0.00130   0.00000  -0.00209  -0.00187   2.61612
   D41       -1.57080  -0.00247   0.00000  -0.00357  -0.00336  -1.57416
   D42        0.52360  -0.00099   0.00000  -0.00169  -0.00148   0.52212
   D43       -0.52360   0.00080   0.00000   0.00160   0.00126  -0.52234
   D44        1.57080   0.00121   0.00000   0.00212   0.00177   1.57256
   D45       -2.61799   0.00720   0.00000   0.00972   0.00940  -2.60860
   D46        2.61799  -0.01377   0.00000  -0.02075  -0.02041   2.59758
[...]
 004330,0.10507937,-0.00715640,-0.11657806,-0.11045802,-0.00368997,0.08
 043506,0.00021541,-0.00013373,0.00020790,0.00022251,0.00017060,-0.0002
 3695,0.00018098,-0.00012755,-0.00005649,-0.00046238,0.00071877,-0.0002
 4297,-0.00114422,0.00049040,0.00048173,0.00034065,-0.00005964,0.000116
 67,0.00003934,-0.00010588,-0.00009031,-0.00004544,-0.00000477,-0.00005
 008,0.00000848,0.00001975,0.00044710,-0.00010901,-0.00014167,-0.000064
 44,-0.00012031,0.00009664,-0.00029416,0.00019073,-0.00006945,0.0001631
 3,0.00003081,-0.00006992,0.00016430,0.00051615,-0.00097436,0.00199260,
 -0.00279601,-0.00254884,-0.00248789,0.00073534,0.00103980,0.00053156,0
 .00035327,-0.00022186,-0.00011897,0.00067650,0.00022595,-0.00086553,-0
 .00009253,-0.00043685,0.00005990,0.00025032,-0.00023347,0.00013675,-0.
 00008014,-0.00009854,-0.00005860,-0.00002214,0.00022957,0.00015509,0.0
 0011471,0.00012846,-0.00000442,-0.34505007,0.17841152,-0.23712538,-0.0
 1430519,0.02130282,-0.02849210,0.34543411,-0.00008377,0.00003438,-0.00
 005931,0.00064808,-0.00007781,-0.00010371,-0.00043404,0.00020719,-0.00
 014567,0.00086050,-0.00041606,-0.00003032,-0.00107830,-0.00026758,0.00
 054804,0.00010614,0.00002999,-0.00025627,-0.00000731,0.00001216,-0.000
 01411,0.00008828,-0.00009130,-0.00007884,-0.00013160,-0.00028832,-0.00
 021441,-0.00017418,0.00027982,0.00000865,-0.00098211,-0.00038872,0.000
 71492,0.00038595,0.00006685,-0.00019190,0.00039110,0.00037787,-0.00047
 428,-0.00118917,-0.00129553,0.00075458,0.01068103,0.00459635,0.0060706
 6,-0.00050825,-0.00068324,-0.00100436,-0.00047490,0.00004547,0.0001723
 4,-0.00015415,-0.00015178,0.00009765,0.00023623,0.00011843,-0.00016880
 ,0.00060429,-0.00028633,-0.00042927,-0.00034973,-0.00016659,-0.0002185
 0,-0.00025643,-0.00008459,-0.00025417,-0.00005528,-0.00004186,0.000077
 07,0.18119132,-0.21236418,0.16418548,-0.00543266,0.01364681,0.00743758
 ,-0.19907323,0.21703934,0.00061269,0.00002972,-0.00023540,0.00023252,-
 0.00026306,0.00032791,-0.00081383,-0.00032789,0.00027075,-0.00041606,-
 0.00020377,-0.00086146,0.00044057,0.00008294,-0.00054375,-0.00062031,0
 .00039720,0.00003582,-0.00002921,-0.00002484,-0.00004938,-0.00014298,0
 .00002500,0.00012081,0.00048152,0.00009099,0.00063329,0.00007465,-0.00
 024341,0.00001445,-0.00079699,0.00017551,0.00008568,0.00058503,-0.0001
 9330,0.00005613,0.00026956,-0.00011179,-0.00000649,0.00167862,-0.00007
 333,0.00138697,-0.00539956,-0.00553125,-0.00455701,0.00101483,0.000734
 68,0.00061233,0.00022669,0.00011084,-0.00006958,-0.00031366,0.00026881
 ,-0.00055265,-0.00033334,-0.00032944,0.00014487,-0.00014413,-0.0000441
 4,0.00063044,0.00012056,0.00004970,0.00003902,0.00027010,0.00026603,0.
 00027728,-0.00006851,0.00002468,-0.00006539,-0.24153948,0.16820315,-0.
 32582153,0.00940315,0.00252078,0.01993037,0.26205786,-0.19764251,0.312
 65921,0.00004665,-0.00000830,-0.00013479,-0.00011475,-0.00003067,0.000
 10076,-0.00000176,-0.00004302,-0.00000090,-0.00027223,-0.00000611,0.00
 001205,0.00042526,-0.00008441,0.00005478,-0.00030973,-0.00013284,0.000
 17877,-0.00001574,0.00004498,0.00008186,-0.00000432,0.00001586,0.00003
 205,0.00008386,0.00007427,0.00005446,0.00011230,0.00012479,0.00008080,
 0.00040555,-0.00005993,0.00004967,-0.00025245,0.00004912,-0.00009304,-
 0.00011562,-0.00000035,-0.00004150,-0.00198770,-0.00048556,-0.00024783
 ,0.00700272,-0.00029701,-0.00220426,0.00129475,-0.00058446,0.00023777,
 -0.00057068,0.00078878,0.00060004,-0.00210126,0.00002113,-0.00141774,-
 0.00003508,-0.00119612,0.00010295,0.00013009,0.00025109,-0.00019690,-0
 .00001941,0.00003368,0.00003889,-0.00003246,-0.00007164,-0.00001979,-0
 .00021612,-0.00011692,-0.00005909,-0.02501072,0.01330574,0.02411913,-0
 .01890206,0.00584099,0.01890685,-0.00816352,0.00217802,-0.02285640,0.5
 8467937,0.00004382,-0.00001823,0.00001558,-0.00029237,0.00005236,0.000
 04079,0.00026322,-0.00001085,0.00001097,-0.00027523,-0.00000393,0.0002
 1648,0.00020360,-0.00014920,-0.00006707,0.00001492,0.00004103,0.000094
 77,0.00006243,-0.00003702,-0.00006666,0.00001271,0.00004979,-0.0000150
 8,-0.00002126,0.00001522,-0.00016896,-0.00000739,-0.00017068,-0.000063
 48,0.00098265,0.00041030,-0.00078823,-0.00040942,-0.00007486,0.0002377
 7,-0.00043490,-0.00037718,0.00049758,-0.00060540,-0.00042285,0.0000055
 1,0.00117705,-0.00505225,-0.00320670,0.00051619,0.00055614,0.00003322,
 0.00013029,0.00007803,0.00020744,-0.00058216,0.00008264,-0.00008623,-0
 .00038798,-0.00051963,0.00017590,-0.00020735,0.00058510,-0.00017753,0.
 00014781,0.00009206,0.00010566,-0.00007128,-0.00010046,0.00000126,-0.0
 0002153,-0.00001144,-0.00005014,0.01056884,-0.04622961,-0.05651256,-0.
 01022778,0.00537999,0.00689455,0.01068112,-0.00167248,0.02737950,0.002
 02767,0.58655520,0.00027773,0.00016913,-0.00023461,-0.00038953,-0.0001
 2939,0.00024062,0.00017869,0.00008262,-0.00004299,-0.00030077,0.000183
 70,0.00008246,0.00063504,0.00002633,-0.00056229,-0.00046338,-0.0002258
 7,0.00045575,0.00003456,-0.00006481,0.00005624,0.00001708,-0.00000793,
 -0.00010070,-0.00006440,-0.00003026,-0.00024798,0.00014786,-0.00017029
 ,0.00001929,0.00184648,-0.00008768,-0.00068562,-0.00097831,0.00022771,
 0.00011241,-0.00064404,-0.00009125,0.00040659,0.00252735,0.00110141,-0
 .00007201,-0.01034006,-0.00025665,-0.00211144,0.00040549,0.00023671,0.
 00090497,0.00053702,-0.00003738,-0.00040468,0.00000345,-0.00017771,0.0
 0058206,-0.00000025,0.00053284,0.00001892,-0.00046809,-0.00054806,0.00
 087396,0.00016782,0.00016315,0.00011296,0.00037255,0.00015473,0.000206
 68,0.00014689,0.00000082,-0.00004879,0.01899853,-0.06912229,-0.1732101
 5,-0.02187494,0.00520606,0.01543070,0.00741175,-0.00231267,0.01004102,
 0.01012062,-0.01786170,0.55389261,-0.00001773,-0.00002460,0.00007710,0
 .00009928,0.00003136,-0.00006382,-0.00003937,-0.00002651,0.00000726,0.
 00007261,-0.00002326,-0.00005025,-0.00018286,0.00002560,0.00003036,0.0
 0011564,0.00006187,-0.00011141,0.00000538,-0.00001231,-0.00004242,-0.0
 0000737,0.00000305,0.00000732,0.00001258,-0.00000025,0.00006994,-0.000
 05756,-0.00002669,-0.00002705,-0.00034055,0.00007858,0.00000430,0.0002
 1512,-0.00006602,0.00004264,0.00010209,-0.00002697,0.00000242,0.000145
 05,0.00006317,0.00014070,-0.00029014,-0.00001620,0.00048555,-0.0002470
 2,0.00017850,-0.00015717,0.00007206,-0.00015542,-0.00007716,0.00039263
 ,0.00002302,0.00021724,0.00000175,0.00015595,0.00001192,0.00003205,0.0
 0000111,-0.00006038,-0.00001607,-0.00003169,-0.00002105,-0.00003696,0.
 00000546,-0.00000304,0.00002991,0.00003060,0.00001418,-0.00833423,0.01
 020153,-0.00329592,0.00628227,-0.00217329,0.00022773,0.00133582,-0.001
 53008,-0.00313911,-0.14644783,0.06308244,-0.10047776,0.20250016,0.0000
 0012,0.00001718,-0.00003963,0.00001061,-0.00002152,0.00001698,-0.00001
 884,0.00003332,-0.00001913,0.00003626,0.00001652,-0.00001407,0.0000014
 5,0.00002296,0.00001200,-0.00004417,-0.00006375,0.00005953,-0.00001465
 ,0.00000601,0.00003325,0.00000390,-0.00001250,-0.00000708,-0.00001407,
 -0.00001151,-0.00002490,0.00002540,0.00005195,0.00002974,0.00000953,-0
 .00012286,0.00012723,-0.00004242,0.00005455,-0.00005912,0.00002275,0.0
 0008908,-0.00008823,-0.00006356,-0.00001646,-0.00011544,0.00032823,0.0
 0113830,0.00007886,0.00006475,-0.00022093,0.00012204,-0.00004985,0.000
 06853,-0.00002232,-0.00009964,-0.00001507,-0.00006224,0.00012684,0.000
 05501,-0.00000900,0.00005072,-0.00012701,0.00004868,-0.00003046,-0.000
 00626,-0.00001373,0.00002422,0.00001012,-0.00000693,-0.00000279,-0.000
 01290,0.00000660,0.00379975,-0.00286945,0.00100650,-0.00168246,0.00133
 083,-0.00072287,-0.00100700,0.00155652,-0.00011990,0.06142396,-0.12670
 229,0.08166810,-0.10789825,0.17641946,-0.00005359,-0.00005690,0.000109
 67,0.00019941,0.00004594,-0.00008806,-0.00013691,-0.00008949,0.0000392
 6,0.00007382,-0.00007652,-0.00012934,-0.00018951,0.00005025,0.00007994
 ,0.00011104,0.00009303,-0.00023234,-0.00001104,0.00001655,-0.00004402,
 -0.00002329,0.00001080,0.00004975,0.00007684,0.00003825,0.00021897,-0.
 00006639,0.00003092,-0.00001733,-0.00084063,0.00010020,0.00021910,0.00
 048467,-0.00013450,-0.00000537,0.00028226,-0.00000478,-0.00012213,-0.0
 0039970,-0.00000378,0.00020083,0.00231170,0.00070972,0.00088003,-0.000
 22234,0.00010012,-0.00031774,-0.00010121,-0.00007491,0.00007938,0.0001
 7387,0.00007351,-0.00012220,-0.00004976,-0.00014350,-0.00000218,0.0001
 5017,0.00004228,-0.00017106,-0.00005600,-0.00006830,-0.00004963,-0.000
 08297,0.00000021,-0.00000437,-0.00004056,0.00002153,0.00001063,-0.0281
 4748,0.03342745,-0.01475432,0.00721263,-0.00436720,-0.00051583,-0.0026
 8911,-0.00265338,-0.01565474,-0.10060923,0.08469662,-0.22137067,0.1428
 0749,-0.13179440,0.23293857,-0.00001352,-0.00001244,0.00003753,0.00007
 119,0.00001108,-0.00004021,-0.00002201,0.00001419,-0.00000905,0.000082
 28,0.00000788,-0.00002389,-0.00015341,0.00000487,0.00003545,0.00008436
 ,0.00000074,-0.00005144,-0.00000232,-0.00000916,-0.00001138,-0.0000004
 4,-0.00000914,-0.00000760,-0.00001473,-0.00001644,0.00001048,-0.000027
 55,0.00000462,-0.00000835,-0.00019127,-0.00003498,0.00006912,0.0000987
 2,-0.00000132,-0.00000336,0.00007182,0.00004407,-0.00004487,0.00009202
 ,-0.00002602,0.00003021,-0.00025806,0.00004601,0.00037144,-0.00023946,
 0.00002162,-0.00010993,0.00007130,-0.00012607,-0.00010119,0.00032545,-
 0.00003133,0.00024952,0.00002250,0.00022180,-0.00002048,0.00002278,0.0
 0000351,-0.00005557,-0.00001473,-0.00002223,-0.00001418,-0.00003027,-0
 .00000433,-0.00001986,0.00003492,0.00001856,0.00001799,0.00020256,-0.0
 0363890,0.00177846,0.00394824,0.00078824,-0.00166294,0.00104905,-0.000
 03600,0.00069333,-0.08827323,-0.06022255,-0.00505602,0.01337478,0.0238
 4385,-0.00315098,0.10687849,-0.00010357,-0.00006406,0.00010849,0.00030
 193,0.00004543,-0.00014149,-0.00012455,0.00004923,-0.00004715,0.000328
 74,-0.00004245,-0.00006349,-0.00049383,-0.00009674,0.00029760,0.000248
 63,-0.00002838,-0.00019563,-0.00002528,0.00001342,0.00000747,0.0000089
 0,-0.00003676,0.00000168,-0.00002599,-0.00004474,0.00007790,-0.0000696
 2,0.00013657,0.00001575,-0.00086640,-0.00024124,0.00054185,0.00039043,
 0.00001739,-0.00013822,0.00035244,0.00025296,-0.00035018,-0.00115000,-
 0.00050960,0.00000121,0.00476962,0.00041494,0.00104114,-0.00045986,-0.
 00030204,-0.00034944,-0.00011424,-0.00011858,-0.00006093,0.00035905,-0
 .00006945,0.00021522,0.00016599,0.00028198,-0.00004817,0.00025437,0.00
 026559,-0.00052123,-0.00010842,-0.00010416,-0.00005759,-0.00021669,-0.
 00010756,-0.00015307,0.00000405,0.00000367,0.00006412,-0.01161401,-0.0
 3044558,0.01448747,0.00711893,0.00315279,-0.00510533,-0.00256097,0.005
 98533,-0.00754895,-0.06053575,-0.32476851,-0.02864807,0.01261091,-0.06
 183242,0.02905555,0.09832567,0.43691711,-0.00008342,-0.00005650,0.0000
 8483,0.00014325,0.00005091,-0.00009002,-0.00004803,-0.00000313,-0.0000
 0823,0.00012457,-0.00005228,-0.00001071,-0.00026265,-0.00005854,0.0002
 0624,0.00016294,0.00003510,-0.00013508,-0.00000925,0.00001346,-0.00001
 428,0.,-0.00000302,0.00002168,0.00000714,-0.00000279,0.00005978,-0.000
 05053,0.00006459,-0.00000231,-0.00054478,-0.00001064,0.00022352,0.0002
 8109,-0.00005112,-0.00004150,0.00019649,0.00005502,-0.00014127,-0.0009
 9352,-0.00049827,0.00009605,0.00397578,-0.00022793,0.00028936,-0.00008
 874,-0.00015162,-0.00023851,-0.00015363,0.00001907,0.00008734,-0.00002
 416,0.00005567,-0.00009663,0.00003389,-0.00008878,-0.00000868,0.000158
 97,0.00027322,-0.00037444,-0.00005572,-0.00005659,-0.00002736,-0.00015
 392,-0.00007930,-0.00008932,-0.00003672,-0.00000503,0.00002287,-0.0068
 9487,-0.02016804,0.00942135,0.00351881,0.00081186,-0.00277650,-0.00034
 627,0.00105496,-0.00189718,-0.00624420,-0.03268198,-0.08385228,-0.0015
 5545,0.04633305,0.00353829,0.00256607,-0.00299155,0.06817504,0.0000848
 2,-0.00001593,0.00005497,0.00011138,0.00001329,-0.00009429,0.00002962,
 0.00005456,-0.00006485,0.00012042,0.00008068,-0.00004963,-0.00037021,0
 .00007311,0.00001031,0.00015358,-0.00000598,0.00001860,0.00002453,-0.0
 0005284,-0.00004604,0.00000677,-0.00001168,-0.00004862,-0.00004767,-0.
 00005165,-0.00002504,-0.00006501,-0.00007739,-0.00004163,0.00008304,0.
 00000297,-0.00017918,-0.00001058,0.00001140,0.00008945,-0.00004223,-0.
 00000552,0.00010022,0.00104208,0.00027122,0.00008903,-0.00406935,-0.00
 007813,-0.00001714,-0.00104651,0.00042096,-0.00029466,0.00049498,-0.00
 062231,-0.00043456,0.00084131,-0.00092192,0.00030677,0.00001890,0.0008
 0135,0.00003107,-0.00007423,-0.00013124,0.00006302,0.00001371,-0.00001
 957,-0.00000997,-0.00000053,0.00003751,0.00000569,0.00015834,0.0000718
 0,0.00003585,-0.03377053,-0.01108763,-0.00517496,-0.00296238,0.0036740
 6,0.00965648,0.00876279,-0.00033502,0.00469700,-0.29470752,-0.00944997
 ,0.08096166,-0.06962458,0.02117758,-0.01550990,-0.03772040,-0.04163781
 ,0.01150913,0.42448268,-0.00003154,-0.00000263,0.00002426,0.00007380,0
 .00000681,-0.00003908,-0.00003671,0.00000732,-0.00001018,0.00009899,-0
 .00001895,-0.00002199,-0.00010823,0.00000578,0.00003913,0.00005288,0.0
 0000833,-0.00004717,-0.00000888,0.00000750,0.00000581,0.00000275,-0.00
 000965,0.00000360,-0.00000695,-0.00001304,0.00002039,-0.00001604,0.000
 03396,0.00000514,-0.00025826,-0.00006845,0.00016687,0.00011459,0.00000
 396,-0.00004431,0.00010470,0.00007233,-0.00010590,0.00012377,0.0000400
 1,0.00002786,-0.00013084,0.00084231,0.00115121,-0.00078665,-0.00007860
 ,-0.00031156,0.00010496,-0.00021784,-0.00019524,-0.00018096,-0.0010871
 1,-0.00041249,0.00009714,0.00039757,0.00001483,0.00004007,-0.00004803,
 -0.00002389,-0.00002735,-0.00002530,-0.00002459,-0.00001061,0.00000081
 ,-0.00002431,0.00002204,0.00000651,0.00002042,0.00733458,0.00232718,-0
 .00034239,0.00213299,-0.00035165,-0.00257300,-0.00170832,0.00101490,-0
 .00176001,-0.00742266,-0.07389896,0.00041511,0.02724458,0.00802779,0.0
 0071255,-0.05932998,-0.02046675,0.01689016,0.03082029,0.08218658,-0.00
 009928,-0.00001211,0.00002799,0.00004096,0.00000830,-0.00000382,-0.000
 07116,-0.00004317,0.00004834,0.00004966,-0.00008557,-0.00001179,0.0000
 4554,-0.00001188,0.00004782,0.00003193,0.00006116,-0.00013860,-0.00002
 074,0.00003851,0.00000610,-0.00000742,0.00000441,0.00004428,0.00002869
 ,0.00002367,0.00006781,-0.00000586,0.00005646,0.00000754,-0.00050146,0
 .00000960,0.00025838,0.00024959,-0.00005685,-0.00006830,0.00018202,0.0
 0003433,-0.00014839,-0.00052055,-0.00018589,0.00002632,0.00232700,0.00
 049816,0.00096583,-0.00054214,0.00006965,-0.00030462,-0.00010553,-0.00
 004872,0.00015006,-0.00060466,-0.00092147,-0.00099377,0.00002406,-0.00
 028121,0.00001458,0.00009334,0.00007734,-0.00011040,-0.00002679,-0.000
 02628,-0.00002809,-0.00004501,-0.00002114,-0.00002209,-0.00006570,-0.0
 0001314,0.00000334,0.03339843,0.00916655,0.00239880,0.00748792,-0.0039
 2023,-0.00994744,-0.00347177,-0.00071341,-0.00250609,0.08295384,0.0009
 8925,-0.10930398,-0.03481842,0.00450595,0.01522793,0.00544271,0.008193
 59,0.01231356,-0.08639521,-0.01202592,0.09304997,0.00118259,0.00020859
 ,0.00008926,0.00108356,-0.00054763,0.00000537,-0.00124970,0.00035138,-
 0.00058964,0.00312762,0.00117658,-0.00157374,-0.00564676,0.00361622,0.
 00542440,0.00061890,0.00133041,0.00146033,0.00015308,-0.00013477,-0.00
 021970,0.00014833,-0.00005243,-0.00014947,-0.00021263,-0.00033193,0.00
 021662,-0.00045695,-0.00062379,0.00005168,-0.00082738,-0.00020672,0.00
 017918,0.00052861,-0.00003355,0.00007765,0.00029057,0.00019480,-0.0001
 1209,-0.01295394,-0.00986407,-0.01586019,-0.14370343,-0.03147075,-0.05
 993802,-0.03921484,-0.02399738,-0.02283257,-0.00632258,0.00089726,0.00
 592437,0.00250976,0.00065593,-0.00130298,0.00229577,0.00020796,-0.0010
 6907,0.00446897,-0.00204747,-0.00109333,-0.00154817,-0.00086807,-0.001
 22300,-0.00098599,-0.00032758,-0.00083633,0.00030580,0.00028181,0.0005
 6408,-0.08171655,-0.03994307,-0.01536150,-0.01818810,-0.03855923,0.008
 35066,0.01193399,0.01491529,-0.00624514,-0.00662638,-0.00669819,0.0162
 6697,0.00085310,0.00001823,-0.00150329,0.00053094,-0.00513270,-0.00513
 229,0.00808278,0.00169582,-0.00505399,0.28153904,-0.00101971,-0.001158
 93,0.00126341,0.00095561,0.00101156,-0.00137136,0.00091084,0.00019426,
 -0.00047641,0.00053071,-0.00007980,0.00095856,-0.00276156,-0.00515605,
 0.00386113,0.00349143,-0.00088975,-0.00242211,0.00005143,-0.00009610,-
 0.00018520,0.00009493,-0.00016497,-0.00019197,-0.00038095,-0.00039000,
 -0.00021626,-0.00019540,0.00057746,-0.00024766,-0.00211772,-0.00043559
 ,0.00097473,0.00095437,0.00000840,-0.00015186,0.00080046,0.00059920,-0
 .00074172,-0.02608195,-0.00888780,-0.02068065,-0.02743577,-0.05605948,
 -0.01348793,-0.01502517,-0.00474507,-0.00945388,-0.00422886,0.00219812
 ,0.00190259,-0.00120466,0.00054497,0.00075318,0.00175522,0.00014506,-0
 .00146187,0.00189995,0.00960242,-0.00640189,0.00037125,-0.00039573,0.0
 0010362,-0.00274027,-0.00199271,-0.00226615,0.00010409,0.00004138,0.00
 059863,-0.04279913,-0.21121153,0.02393178,-0.00754630,-0.00876608,0.00
 523850,-0.00393934,-0.02673504,0.01405807,-0.01510432,-0.01367744,0.02
 960358,-0.00178621,0.00313679,-0.00975780,0.00016419,-0.00825739,-0.00
 846997,0.00699381,0.00129733,-0.00536996,0.13528903,0.32974252,-0.0012
 5264,-0.00098972,0.00109363,0.00034342,0.00103809,-0.00121831,0.001022
 25,-0.00030417,-0.00023719,0.00004604,-0.00089773,0.00085985,-0.004351
 24,0.00188308,-0.00286765,0.00156749,-0.00066677,-0.00255128,0.0000071
 8,-0.00002749,-0.00008929,0.00005377,-0.00005911,-0.00002362,-0.000003
 15,-0.00011333,0.00018025,0.00011137,-0.00007986,0.00001194,-0.0015002
 5,0.00001774,0.00050002,0.00072448,-0.00017119,-0.00000829,0.00049391,
 0.00015444,-0.00031835,-0.03824926,-0.02006452,-0.02531069,-0.05838231
 ,-0.01525564,-0.10188603,0.00740110,0.00406453,0.00718905,0.00229284,0
 .00001249,-0.00000630,-0.00078718,0.00022272,-0.00010694,-0.00055535,-
 0.00033213,0.00169391,0.00602422,-0.00561349,-0.00077793,-0.00200383,-
 0.00082040,-0.00175793,-0.00019018,0.00003221,-0.00027802,-0.00022858,
 0.00013161,0.00028095,-0.00856309,0.03002276,-0.08162310,-0.00427589,0
 .00187500,0.01684891,0.00276908,0.02584395,0.00555430,-0.00359963,-0.0
 0985651,0.00881094,-0.00024574,-0.00092954,0.00000897,-0.00091100,-0.0
 0768857,-0.00473561,0.00075642,-0.00153531,-0.00107126,0.10148576,0.00
 010687,0.18183508\\0.00000183,0.00000215,-0.00000294,0.00000165,-0.000
 00037,-0.00000036,-0.00000385,0.00000237,-0.00000133,-0.00000105,0.000
 00243,-0.00000288,0.00000129,-0.00000288,0.00000589,-0.00000292,0.0000
 0126,-0.00000085,-0.00000079,0.00000077,-0.00000231,-0.00000205,0.0000
 0131,0.,-0.00000141,0.00000037,0.00000075,0.00000136,-0.00000015,-0.00
 000203,-0.00000131,0.00000052,-0.00000104,-0.00000196,0.00000289,-0.00
 000384,-0.00000137,0.00000187,-0.00000147,0.00000555,0.00000222,-0.000
 00326,-0.00000515,-0.00000352,-0.00000494,0.00000158,-0.00000179,0.000
 00332,0.00000009,-0.00000112,0.00000130,0.00000066,-0.00000196,0.00000
 115,0.00000144,-0.00000132,-0.00000027,-0.00000316,0.00000002,0.000001
 55,-0.00000049,0.00000031,0.00000009,-0.00000120,-0.00000057,0.0000018
 0,0.00000031,0.00000023,0.00000165,0.00000058,-0.00000457,0.00000305,0
 .00000200,0.00000183,-0.00000185,-0.00000060,0.00000065,-0.00000024,0.
 00000104,-0.00000401,-0.00000011,0.00000170,-0.00000082,0.00000105,0.0
 0000134,0.00000009,0.00000180,0.00000137,-0.00000049,0.00000142,0.0000
 0351,0.00000229,0.00000489\\\@
 The archive entry for this job was punched.


     ON THE SURVIVAL OF THE FITTEST -
 "STRONG REPRESENTATIVES FROM EACH PAST ERA THRIVE TODAY,
 SUCH AS PROGRAMMING IN THE THIRTY YEAR OLD LANGUAGE KNOWN
 AS FORTRAN, AND EVEN IN THE ANCIENT SCRIPT KNOWN AS DIRECT
 MACHINE CODE. SOME PEOPLE MIGHT LOOK ON SUCH RELICS AS LIVING
 FOSSILS; OTHERS WOULD POINT OUT THAT EVEN A VERY OLD SPECIES
 MIGHT STILL BE FILLING A PARTICULAR ECOLOGICAL NICHE."
     -- ALAN KAY, SCI.AM. SEPTEMBER 1984
 Job cpu time:       0 days  6 hours 27 minutes 21.5 seconds.
 Elapsed time:       0 days  0 hours 24 minutes 19.9 seconds.
 File lengths (MBytes):  RWF=    826 Int=      0 D2E=      0 Chk=     23 Scr=      1
 Normal termination of Gaussian 16 at Fri Dec 31 11:40:17 2021.
