 Entering Gaussian System, Link 0=/software/g16/g16
 Input=Z-isomer.com
 Output=Z-isomer.log
 Initial command:
 /software/g16/l1.exe "/scratch/Gau-1043620.inp" -scrdir="/scratch/"
 Default CPUs for threads: 0-15
 Default is to use a total of  16 processors:
                               16 via shared-memory
                                1 via Linda
 Entering Link 1 = /software/g16/l1.exe PID=   1043621.
  
 Copyright (c) 1988-2019, Gaussian, Inc.  All Rights Reserved.
  
 This is part of the Gaussian(R) 16 program.  It is based on
 the Gaussian(R) 09 system (copyright 2009, Gaussian, Inc.),
 the Gaussian(R) 03 system (copyright 2003, Gaussian, Inc.),
 the Gaussian(R) 98 system (copyright 1998, Gaussian, Inc.),
 the Gaussian(R) 94 system (copyright 1995, Gaussian, Inc.),
 the Gaussian 92(TM) system (copyright 1992, Gaussian, Inc.),
 the Gaussian 90(TM) system (copyright 1990, Gaussian, Inc.),
 the Gaussian 88(TM) system (copyright 1988, Gaussian, Inc.),
 the Gaussian 86(TM) system (copyright 1986, Carnegie Mellon
 University), and the Gaussian 82(TM) system (copyright 1983,
 Carnegie Mellon University). Gaussian is a federally registered
 trademark of Gaussian, Inc.
  
 This software contains proprietary and confidential information,
 including trade secrets, belonging to Gaussian, Inc.
  
 This software is provided under written license and may be
 used, copied, transmitted, or stored only in accord with that
 written license.
  
 The following legend is applicable only to US Government
 contracts under FAR:
  
                    RESTRICTED RIGHTS LEGEND
  
 Use, reproduction and disclosure by the US Government is
 subject to restrictions as set forth in subparagraphs (a)
 and (c) of the Commercial Computer Software - Restricted
 Rights clause in FAR 52.227-19.
  
 Gaussian, Inc.
 340 Quinnipiac St., Bldg. 40, Wallingford CT 06492
  
  
 ---------------------------------------------------------------
 Warning -- This program may not be used in any manner that
 competes with the business of Gaussian, Inc. or will provide
 assistance to any competitor of Gaussian, Inc.  The licensee
 of this program is prohibited from giving any competitor of
 Gaussian, Inc. access to this program.  By using this program,
 the user acknowledges that Gaussian, Inc. is engaged in the
 business of creating and licensing software in the field of
 computational chemistry and represents and warrants to the
 licensee that it is not a competitor of Gaussian, Inc. and that
 it will not use this program in any manner prohibited above.
 ---------------------------------------------------------------
  

 Cite this work as:
 Gaussian 16, Revision C.01,
 M. J. Frisch, G. W. Trucks, H. B. Schlegel, G. E. Scuseria, 
 M. A. Robb, J. R. Cheeseman, G. Scalmani, V. Barone, 
 G. A. Petersson, H. Nakatsuji, X. Li, M. Caricato, A. V. Marenich, 
 J. Bloino, B. G. Janesko, R. Gomperts, B. Mennucci, H. P. Hratchian, 
 J. V. Ortiz, A. F. Izmaylov, J. L. Sonnenberg, D. Williams-Young, 
 F. Ding, F. Lipparini, F. Egidi, J. Goings, B. Peng, A. Petrone, 
 T. Henderson, D. Ranasinghe, V. G. Zakrzewski, J. Gao, N. Rega, 
 G. Zheng, W. Liang, M. Hada, M. Ehara, K. Toyota, R. Fukuda, 
 J. Hasegawa, M. Ishida, T. Nakajima, Y. Honda, O. Kitao, H. Nakai, 
 T. Vreven, K. Throssell, J. A. Montgomery, Jr., J. E. Peralta, 
 F. Ogliaro, M. J. Bearpark, J. J. Heyd, E. N. Brothers, K. N. Kudin, 
 V. N. Staroverov, T. A. Keith, R. Kobayashi, J. Normand, 
 K. Raghavachari, A. P. Rendell, J. C. Burant, S. S. Iyengar, 
 J. Tomasi, M. Cossi, J. M. Millam, M. Klene, C. Adamo, R. Cammi, 
 J. W. Ochterski, R. L. Martin, K. Morokuma, O. Farkas, 
 J. B. Foresman, and D. J. Fox, Gaussian, Inc., Wallingford CT, 2019.
 
 ******************************************
 Gaussian 16:  ES64L-G16RevC.01  3-Jul-2019
                31-Dec-2021 
 ******************************************
 SetSPE:  set environment variable "MP_BIND" = "yes"
 SetSPE:  set environment variable "MP_BLIST" = "0,1,2,3,4,5,6,7,8,9,10,11,12,13,14,15"
 ------------------------------------------------------
 #N M062X/gen OPT FREQ=NoRaman Integral(Grid=UltraFine)
 ------------------------------------------------------
 1/18=20,19=15,26=4,38=1/1,3;
 2/9=110,12=2,17=6,18=5,40=1/2;
 3/5=7,11=2,25=1,30=1,71=1,74=-55,75=-5/1,2,3;
 4//1;
 5/5=2,38=5/2;
 6/7=2,8=2,9=2,10=2,28=1/1;
 7//1,2,3,16;
 1/18=20,19=15,26=4/3(2);
 2/9=110/2;
 99//99;
 2/9=110/2;
 3/5=7,6=1,11=2,25=1,30=1,71=1,74=-55,75=-5,82=7/1,2,3;
 4/5=5,16=3,69=1/1;
 5/5=2,38=5/2;
 7//1,2,3,16;
 1/18=20,19=15,26=4/3(-5);
 2/9=110/2;
 6/7=2,8=2,9=2,10=2,19=2,28=1/1;
 99/9=1/99;
 ----------------------------------------------------------------------
 Z-isomer - CH: def2svp - O25 O26 O31 SF: def2tzvp - N: aug-cc-pvtz - O
 12 O13: aug-cc-pvtz
 ----------------------------------------------------------------------
 Symbolic Z-matrix:
 Charge =  0 Multiplicity = 1
 C
 C                    1    B1
 C                    2    B2       1    A1
 C                    3    B3       2    A2       1    D1       0
 C                    4    B4       3    A3       2    D2       0
 C                    1    B5       2    A4       3    D3       0
 H                    1    B6       2    A5       3    D4       0
 H                    3    B7       2    A6       1    D5       0
 H                    4    B8       3    A7       2    D6       0
 H                    6    B9       1    A8       2    D7       0
 N                    2    B10      1    A9       6    D8       0
 O                    11   B11      2    A10      1    D9       0
 O                    11   B12      2    A11      1    D10      0
 C                    5    B13      4    A12      3    D11      0
 C                    14   B14      5    A13      4    D12      0
 C                    15   B15      14   A14      5    D13      0
 H                    16   B16      15   A15      14   D14      0
 H                    16   B17      15   A16      14   D15      0
 H                    16   B18      15   A17      14   D16      0
 C                    14   B19      5    A18      4    D17      0
 H                    20   B20      14   A19      5    D18      0
 H                    20   B21      14   A20      5    D19      0
 H                    20   B22      14   A21      5    D20      0
 S                    15   B23      14   A22      5    D21      0
 O                    24   B24      15   A23      14   D22      0
 O                    24   B25      15   A24      14   D23      0
 C                    24   B26      15   A25      14   D24      0
 F                    27   B27      24   A26      15   D25      0
 F                    27   B28      24   A27      15   D26      0
 F                    27   B29      24   A28      15   D27      0
 O                    24   B30      15   A29      14   D28      0
       Variables:
  B1                    1.4014                   
  B2                    1.4014                   
  B3                    1.4014                   
  B4                    1.4014                   
  B5                    1.4014                   
  B6                    1.07                     
  B7                    1.07                     
  B8                    1.07                     
  B9                    1.07                     
  B10                   1.47                     
  B11                   1.1968                   
  B12                   1.1968                   
  B13                   1.54                     
  B14                   1.3552                   
  B15                   1.54                     
  B16                   1.07                     
  B17                   1.07                     
  B18                   1.07                     
  B19                   1.54                     
  B20                   1.07                     
  B21                   1.07                     
  B22                   1.07                     
  B23                   2.53493                  
  B24                   1.4696                   
  B25                   1.4696                   
  B26                   1.78                     
  B27                   1.35                     
  B28                   1.35                     
  B29                   1.35                     
  B30                   1.67                     
  A1                  120.                       
  A2                  120.                       
  A3                  120.                       
  A4                  120.                       
  A5                  120.                       
  A6                  120.                       
  A7                  120.                       
  A8                  120.                       
  A9                  120.                       
  A10                 120.                       
  A11                 120.                       
  A12                 120.                       
  A13                 120.                       
  A14                 120.                       
  A15                 109.47122                  
  A16                 109.47122                  
  A17                 109.47122                  
  A18                 120.                       
  A19                 109.47122                  
  A20                 109.47122                  
  A21                 109.47122                  
  A22                 113.07018                  
  A23                 141.60215                  
  A24                  91.8085                   
  A25                  91.8085                   
  A26                 109.47122                  
  A27                 109.47122                  
  A28                 109.47122                  
  A29                  32.13093                  
  D1                    0.                       
  D2                    0.                       
  D3                    0.                       
  D4                 -180.                       
  D5                 -180.                       
  D6                  180.                       
  D7                  180.                       
  D8                  180.                       
  D9                    0.                       
  D10                 180.                       
  D11                -180.                       
  D12                -180.                       
  D13                 180.                       
  D14                 -30.                       
  D15                  90.                       
  D16                -150.                       
  D17                   0.                       
  D18                 -30.                       
  D19                  90.                       
  D20                -150.                       
  D21                 -42.46273                  
  D22                 109.72798                  
  D23                 -15.49601                  
  D24                -125.04803                  
  D25                 -87.44069                  
  D26                 152.55931                  
  D27                  32.55931                  
  D28                 109.72798                  
 
     9 tetrahedral angles replaced.

 GradGradGradGradGradGradGradGradGradGradGradGradGradGradGradGradGradGrad
 Berny optimization.
 Initialization pass.
                           ----------------------------
                           !    Initial Parameters    !
                           ! (Angstroms and Degrees)  !
 --------------------------                            --------------------------
 ! Name  Definition              Value          Derivative Info.                !
 --------------------------------------------------------------------------------
 ! R1    R(1,2)                  1.4014         estimate D2E/DX2                !
 ! R2    R(1,6)                  1.4014         estimate D2E/DX2                !
 ! R3    R(1,7)                  1.07           estimate D2E/DX2                !
 ! R4    R(2,3)                  1.4014         estimate D2E/DX2                !
 ! R5    R(2,11)                 1.47           estimate D2E/DX2                !
 ! R6    R(3,4)                  1.4014         estimate D2E/DX2                !
 ! R7    R(3,8)                  1.07           estimate D2E/DX2                !
 ! R8    R(4,5)                  1.4014         estimate D2E/DX2                !
 ! R9    R(4,9)                  1.07           estimate D2E/DX2                !
 ! R10   R(5,6)                  1.4014         estimate D2E/DX2                !
 ! R11   R(5,14)                 1.54           estimate D2E/DX2                !
 ! R12   R(6,10)                 1.07           estimate D2E/DX2                !
 ! R13   R(11,12)                1.1968         estimate D2E/DX2                !
 ! R14   R(11,13)                1.1968         estimate D2E/DX2                !
 ! R15   R(14,15)                1.3552         estimate D2E/DX2                !
 ! R16   R(14,20)                1.54           estimate D2E/DX2                !
 ! R17   R(15,16)                1.54           estimate D2E/DX2                !
 ! R18   R(15,31)                1.43           estimate D2E/DX2                !
 ! R19   R(16,17)                1.07           estimate D2E/DX2                !
 ! R20   R(16,18)                1.07           estimate D2E/DX2                !
 ! R21   R(16,19)                1.07           estimate D2E/DX2                !
 ! R22   R(20,21)                1.07           estimate D2E/DX2                !
 ! R23   R(20,22)                1.07           estimate D2E/DX2                !
 ! R24   R(20,23)                1.07           estimate D2E/DX2                !
 ! R25   R(24,25)                1.4696         estimate D2E/DX2                !
 ! R26   R(24,26)                1.4696         estimate D2E/DX2                !
 ! R27   R(24,27)                1.78           estimate D2E/DX2                !
 ! R28   R(24,31)                1.67           estimate D2E/DX2                !
 ! R29   R(27,28)                1.35           estimate D2E/DX2                !
 ! R30   R(27,29)                1.35           estimate D2E/DX2                !
 ! R31   R(27,30)                1.35           estimate D2E/DX2                !
 ! A1    A(2,1,6)              120.0            estimate D2E/DX2                !
 ! A2    A(2,1,7)              120.0            estimate D2E/DX2                !
 ! A3    A(6,1,7)              120.0            estimate D2E/DX2                !
 ! A4    A(1,2,3)              120.0            estimate D2E/DX2                !
 ! A5    A(1,2,11)             120.0            estimate D2E/DX2                !
 ! A6    A(3,2,11)             120.0            estimate D2E/DX2                !
 ! A7    A(2,3,4)              120.0            estimate D2E/DX2                !
 ! A8    A(2,3,8)              120.0            estimate D2E/DX2                !
 ! A9    A(4,3,8)              120.0            estimate D2E/DX2                !
 ! A10   A(3,4,5)              120.0            estimate D2E/DX2                !
 ! A11   A(3,4,9)              120.0            estimate D2E/DX2                !
 ! A12   A(5,4,9)              120.0            estimate D2E/DX2                !
 ! A13   A(4,5,6)              120.0            estimate D2E/DX2                !
 ! A14   A(4,5,14)             120.0            estimate D2E/DX2                !
 ! A15   A(6,5,14)             120.0            estimate D2E/DX2                !
 ! A16   A(1,6,5)              120.0            estimate D2E/DX2                !
 ! A17   A(1,6,10)             120.0            estimate D2E/DX2                !
 ! A18   A(5,6,10)             120.0            estimate D2E/DX2                !
 ! A19   A(2,11,12)            120.0            estimate D2E/DX2                !
 ! A20   A(2,11,13)            120.0            estimate D2E/DX2                !
 ! A21   A(12,11,13)           120.0            estimate D2E/DX2                !
 ! A22   A(5,14,15)            120.0            estimate D2E/DX2                !
 ! A23   A(5,14,20)            120.0            estimate D2E/DX2                !
 ! A24   A(15,14,20)           120.0            estimate D2E/DX2                !
 ! A25   A(14,15,16)           120.0            estimate D2E/DX2                !
 ! A26   A(14,15,31)           120.0            estimate D2E/DX2                !
 ! A27   A(16,15,31)           120.0            estimate D2E/DX2                !
 ! A28   A(15,16,17)           109.4712         estimate D2E/DX2                !
 ! A29   A(15,16,18)           109.4712         estimate D2E/DX2                !
 ! A30   A(15,16,19)           109.4712         estimate D2E/DX2                !
 ! A31   A(17,16,18)           109.4712         estimate D2E/DX2                !
 ! A32   A(17,16,19)           109.4712         estimate D2E/DX2                !
 ! A33   A(18,16,19)           109.4712         estimate D2E/DX2                !
 ! A34   A(14,20,21)           109.4712         estimate D2E/DX2                !
 ! A35   A(14,20,22)           109.4712         estimate D2E/DX2                !
 ! A36   A(14,20,23)           109.4712         estimate D2E/DX2                !
 ! A37   A(21,20,22)           109.4712         estimate D2E/DX2                !
 ! A38   A(21,20,23)           109.4712         estimate D2E/DX2                !
 ! A39   A(22,20,23)           109.4712         estimate D2E/DX2                !
 ! A40   A(25,24,26)           109.4712         estimate D2E/DX2                !
 ! A41   A(25,24,27)           109.4712         estimate D2E/DX2                !
 ! A42   A(25,24,31)           109.4712         estimate D2E/DX2                !
 ! A43   A(26,24,27)           109.4712         estimate D2E/DX2                !
 ! A44   A(26,24,31)           109.4712         estimate D2E/DX2                !
 ! A45   A(27,24,31)           109.4712         estimate D2E/DX2                !
 ! A46   A(24,27,28)           109.4712         estimate D2E/DX2                !
 ! A47   A(24,27,29)           109.4712         estimate D2E/DX2                !
 ! A48   A(24,27,30)           109.4712         estimate D2E/DX2                !
 ! A49   A(28,27,29)           109.4712         estimate D2E/DX2                !
 ! A50   A(28,27,30)           109.4712         estimate D2E/DX2                !
 ! A51   A(29,27,30)           109.4712         estimate D2E/DX2                !
 ! A52   A(15,31,24)           109.4712         estimate D2E/DX2                !
 ! D1    D(6,1,2,3)              0.0            estimate D2E/DX2                !
 ! D2    D(6,1,2,11)           180.0            estimate D2E/DX2                !
 ! D3    D(7,1,2,3)            180.0            estimate D2E/DX2                !
 ! D4    D(7,1,2,11)             0.0            estimate D2E/DX2                !
 ! D5    D(2,1,6,5)              0.0            estimate D2E/DX2                !
 ! D6    D(2,1,6,10)           180.0            estimate D2E/DX2                !
 ! D7    D(7,1,6,5)            180.0            estimate D2E/DX2                !
 ! D8    D(7,1,6,10)             0.0            estimate D2E/DX2                !
 ! D9    D(1,2,3,4)              0.0            estimate D2E/DX2                !
 ! D10   D(1,2,3,8)            180.0            estimate D2E/DX2                !
 ! D11   D(11,2,3,4)           180.0            estimate D2E/DX2                !
 ! D12   D(11,2,3,8)             0.0            estimate D2E/DX2                !
 ! D13   D(1,2,11,12)            0.0            estimate D2E/DX2                !
 ! D14   D(1,2,11,13)          180.0            estimate D2E/DX2                !
 ! D15   D(3,2,11,12)          180.0            estimate D2E/DX2                !
 ! D16   D(3,2,11,13)            0.0            estimate D2E/DX2                !
 ! D17   D(2,3,4,5)              0.0            estimate D2E/DX2                !
 ! D18   D(2,3,4,9)            180.0            estimate D2E/DX2                !
 ! D19   D(8,3,4,5)            180.0            estimate D2E/DX2                !
 ! D20   D(8,3,4,9)              0.0            estimate D2E/DX2                !
 ! D21   D(3,4,5,6)              0.0            estimate D2E/DX2                !
 ! D22   D(3,4,5,14)           180.0            estimate D2E/DX2                !
 ! D23   D(9,4,5,6)            180.0            estimate D2E/DX2                !
 ! D24   D(9,4,5,14)             0.0            estimate D2E/DX2                !
 ! D25   D(4,5,6,1)              0.0            estimate D2E/DX2                !
 ! D26   D(4,5,6,10)           180.0            estimate D2E/DX2                !
 ! D27   D(14,5,6,1)           180.0            estimate D2E/DX2                !
 ! D28   D(14,5,6,10)            0.0            estimate D2E/DX2                !
 ! D29   D(4,5,14,15)          180.0            estimate D2E/DX2                !
 ! D30   D(4,5,14,20)            0.0            estimate D2E/DX2                !
 ! D31   D(6,5,14,15)            0.0            estimate D2E/DX2                !
 ! D32   D(6,5,14,20)          180.0            estimate D2E/DX2                !
 ! D33   D(5,14,15,16)         180.0            estimate D2E/DX2                !
 ! D34   D(5,14,15,31)           0.0            estimate D2E/DX2                !
 ! D35   D(20,14,15,16)          0.0            estimate D2E/DX2                !
 ! D36   D(20,14,15,31)        180.0            estimate D2E/DX2                !
 ! D37   D(5,14,20,21)         -30.0            estimate D2E/DX2                !
 ! D38   D(5,14,20,22)          90.0            estimate D2E/DX2                !
 ! D39   D(5,14,20,23)        -150.0            estimate D2E/DX2                !
 ! D40   D(15,14,20,21)        150.0            estimate D2E/DX2                !
 ! D41   D(15,14,20,22)        -90.0            estimate D2E/DX2                !
 ! D42   D(15,14,20,23)         30.0            estimate D2E/DX2                !
 ! D43   D(14,15,16,17)        -30.0            estimate D2E/DX2                !
 ! D44   D(14,15,16,18)         90.0            estimate D2E/DX2                !
 ! D45   D(14,15,16,19)       -150.0            estimate D2E/DX2                !
 ! D46   D(31,15,16,17)        150.0            estimate D2E/DX2                !
 ! D47   D(31,15,16,18)        -90.0            estimate D2E/DX2                !
 ! D48   D(31,15,16,19)         30.0            estimate D2E/DX2                !
 ! D49   D(14,15,31,24)        -90.0            estimate D2E/DX2                !
 ! D50   D(16,15,31,24)         90.0            estimate D2E/DX2                !
 ! D51   D(25,24,27,28)         60.0            estimate D2E/DX2                !
 ! D52   D(25,24,27,29)        -60.0            estimate D2E/DX2                !
 ! D53   D(25,24,27,30)        180.0            estimate D2E/DX2                !
 ! D54   D(26,24,27,28)        180.0            estimate D2E/DX2                !
 ! D55   D(26,24,27,29)         60.0            estimate D2E/DX2                !
 ! D56   D(26,24,27,30)        -60.0            estimate D2E/DX2                !
 ! D57   D(31,24,27,28)        -60.0            estimate D2E/DX2                !
 ! D58   D(31,24,27,29)        180.0            estimate D2E/DX2                !
 ! D59   D(31,24,27,30)         60.0            estimate D2E/DX2                !
 ! D60   D(25,24,31,15)        180.0            estimate D2E/DX2                !
 ! D61   D(26,24,31,15)         60.0            estimate D2E/DX2                !
 ! D62   D(27,24,31,15)        -60.0            estimate D2E/DX2                !
 --------------------------------------------------------------------------------
 Trust Radius=3.00D-01 FncErr=1.00D-07 GrdErr=1.00D-06 EigMax=2.50D+02 EigMin=1.00D-04
 Number of steps in this run=    155 maximum allowed number of steps=    186.
 GradGradGradGradGradGradGradGradGradGradGradGradGradGradGradGradGradGrad

                          Input orientation:                          
 ---------------------------------------------------------------------
 Center     Atomic      Atomic             Coordinates (Angstroms)
 Number     Number       Type             X           Y           Z
 ---------------------------------------------------------------------
      1          6           0        0.000000    0.000000    0.000000
      2          6           0        0.000000    0.000000    1.401400
      3          6           0        1.213648    0.000000    2.102100
      4          6           0        2.427296    0.000000    1.401400
      5          6           0        2.427296    0.000000    0.000000
      6          6           0        1.213648    0.000000   -0.700700
      7          1           0       -0.926647    0.000000   -0.535000
      8          1           0        1.213648    0.000000    3.172100
      9          1           0        3.353943    0.000000    1.936400
     10          1           0        1.213648    0.000000   -1.770700
     11          7           0       -1.273057    0.000000    2.136400
     12          8           0       -2.309517    0.000000    1.538000
     13          8           0       -1.273057    0.000000    3.333200
     14          6           0        3.760975    0.000000   -0.770000
     15          6           0        3.760975    0.000000   -2.125200
     16          6           0        5.094654    0.000000   -2.895200
     17          1           0        5.840362    0.504403   -2.316929
     18          1           0        5.403537   -1.008806   -3.073533
     19          1           0        4.966711    0.504403   -3.830138
     20          6           0        5.094654    0.000000    0.000000
     21          1           0        4.966711    0.504403    0.934938
     22          1           0        5.403537   -1.008806    0.178333
     23          1           0        5.840362    0.504403   -0.578271
     24         16           0        2.040473   -1.574492   -3.118533
     25          8           0        0.767762   -1.574493   -3.853333
     26          8           0        1.864748   -2.267269   -1.834436
     27          6           0        3.280997   -2.413592   -4.080517
     28          9           0        3.442420   -1.777195   -5.260111
     29          9           0        2.891286   -3.686384   -4.305517
     30          9           0        4.450131   -2.413591   -3.405517
     31          8           0        2.522559   -0.000001   -2.840200
 ---------------------------------------------------------------------
                    Distance matrix (angstroms):
                    1          2          3          4          5
     1  C    0.000000
     2  C    1.401400   0.000000
     3  C    2.427296   1.401400   0.000000
     4  C    2.802800   2.427296   1.401400   0.000000
     5  C    2.427296   2.802800   2.427296   1.401400   0.000000
     6  C    1.401400   2.427296   2.802800   2.427296   1.401400
     7  H    1.070000   2.146700   3.396345   3.872800   3.396345
     8  H    3.396345   2.146700   1.070000   2.146700   3.396345
     9  H    3.872800   3.396345   2.146700   1.070000   2.146700
    10  H    2.146700   3.396345   3.872800   3.396345   2.146700
    11  N    2.486942   1.470000   2.486942   3.772644   4.272800
    12  O    2.774763   2.313553   3.568038   4.738782   4.980245
    13  O    3.568038   2.313553   2.774763   4.174262   4.980245
    14  C    3.838989   4.342800   3.838989   2.548270   1.540000
    15  C    4.319885   5.155758   4.935478   3.770359   2.509019
    16  C    5.859837   6.664554   6.327339   5.057230   3.936621
    17  H    6.303365   6.941918   6.417844   5.072417   4.155912
    18  H    6.297817   7.088083   6.734986   5.468156   4.395714
    19  H    6.292265   7.231295   7.037851   5.837126   4.623095
    20  C    5.094654   5.283883   4.413732   3.013092   2.667358
    21  H    5.079050   5.014003   3.962597   2.630711   2.752664
    22  H    5.499791   5.631322   4.719506   3.372179   3.147618
    23  H    5.890556   6.187354   5.370782   3.977756   3.498263
    24  S    4.045714   5.203110   5.515222   4.801922   3.514813
    25  O    4.232808   5.539017   6.176166   5.731082   4.481212
    26  O    3.461640   4.369030   4.589200   3.990940   2.970206
    27  C    5.765499   6.829478   6.951554   6.050260   4.817141
    28  F    6.532798   7.706128   7.894808   6.968833   5.644260
    29  F    6.362895   7.383621   7.580333   6.809817   5.687019
    30  F    6.101363   6.981084   6.828915   5.746628   4.638408
    31  O    3.798689   4.935025   5.112688   4.242670   2.841797
                    6          7          8          9         10
     6  C    0.000000
     7  H    2.146700   0.000000
     8  H    3.872800   4.280590   0.000000
     9  H    3.396345   4.942800   2.471400   0.000000
    10  H    1.070000   2.471400   4.942800   4.280590   0.000000
    11  N    3.772644   2.693767   2.693767   4.631321   4.631321
    12  O    4.174262   2.491918   3.883680   5.677455   4.833237
    13  O    4.738782   3.883680   2.491918   4.833237   5.677455
    14  C    2.548270   4.693509   4.693509   2.736837   2.736837
    15  C    2.918574   4.950004   5.877947   4.081944   2.571876
    16  C    4.458480   6.467350   7.202384   5.135604   4.040632
    17  H    4.926774   7.015847   7.196551   4.952526   4.686072
    18  H    4.919674   6.894423   7.588201   5.506174   4.502247
    19  H    4.912564   6.770822   7.960605   6.009026   4.310590
    20  C    3.943753   6.045022   5.012427   2.603790   4.265863
    21  H    4.124950   6.094818   4.398272   1.964273   4.654071
    22  H    4.398358   6.449633   5.247427   2.882589   4.729861
    23  H    4.655738   6.785920   5.977139   3.572152   4.804456
    24  S    3.001430   4.237626   6.537181   5.454959   2.231439
    25  O    3.552033   4.044921   7.213498   6.533634   2.648623
    26  O    2.617211   3.823732   5.534423   4.645149   2.359767
    27  C    4.639237   6.008359   7.918321   6.483366   3.928690
    28  F    5.377181   6.676365   8.901013   7.413233   4.505756
    29  F    5.422048   6.510211   8.504037   7.263952   4.777991
    30  F    4.859658   6.555534   7.717855   5.963482   4.355786
    31  O    2.508128   4.148610   6.153129   4.848413   1.690289
                   11         12         13         14         15
    11  N    0.000000
    12  O    1.196800   0.000000
    13  O    1.196800   2.072918   0.000000
    14  C    5.812800   6.494439   6.494439   0.000000
    15  C    6.595659   7.090127   7.425336   1.355200   0.000000
    16  C    8.115710   8.629890   8.907341   2.509019   1.540000
    17  H    8.407574   9.029697   9.098303   2.640315   2.148263
    18  H    8.528658   9.042960   9.308106   3.003658   2.148263
    19  H    8.648046   9.056203   9.513282   3.327561   2.148263
    20  C    6.716543   7.562221   7.187348   1.540000   2.509019
    21  H    6.374374   7.318579   6.703789   2.148263   3.327561
    22  H    7.030549   7.896681   7.453038   2.148263   3.003658
    23  H    7.630505   8.435256   8.133558   2.148263   2.640315
    24  S    6.408809   6.563896   7.421817   3.309798   2.534929
    25  O    6.520803   6.404307   7.634804   4.576604   3.798000
    26  O    5.545617   5.825660   6.456841   3.141529   2.969971
    27  C    8.075574   8.285348   9.029287   4.124964   3.143098
    28  F    8.950001   9.080612   9.961885   4.839524   3.617674
    29  F    8.510551   8.647801   9.448872   5.181280   4.370305
    30  F    8.324251   8.715309   9.164639   3.639547   2.817724
    31  O    6.258854   6.520551   7.246901   2.412344   1.430000
                   16         17         18         19         20
    16  C    0.000000
    17  H    1.070000   0.000000
    18  H    1.070000   1.747303   0.000000
    19  H    1.070000   1.747303   1.747303   0.000000
    20  C    2.895200   2.485692   3.249570   3.865326   0.000000
    21  H    3.865326   3.367180   4.306792   4.765075   1.070000
    22  H    3.249570   2.950754   3.251867   4.306792   1.070000
    23  H    2.485692   1.738658   2.950754   3.367180   1.070000
    24  S    3.443389   4.404945   3.410605   3.659379   4.640291
    25  O    4.703089   5.693297   4.734818   4.685459   6.004099
    26  O    4.086321   4.870366   3.955011   4.613801   4.351776
    27  C    3.243417   4.263248   2.737264   3.379203   5.075962
    28  F    3.388378   4.429236   3.036037   3.094184   5.792846
    29  F    4.520315   5.496747   3.872804   4.700645   6.081261
    30  F    2.549755   3.410638   1.729918   2.993634   4.223550
    31  O    2.572683   3.396477   3.061399   2.684824   3.831763
                   21         22         23         24         25
    21  H    0.000000
    22  H    1.747303   0.000000
    23  H    1.747303   1.747303   0.000000
    24  S    5.414361   4.743367   5.021345   0.000000
    25  O    6.699293   6.169664   6.385853   1.469600   0.000000
    26  O    4.997376   4.261219   5.006558   1.469600   2.399847
    27  C    6.042442   4.961492   5.227884   1.780000   2.659333
    28  F    6.775528   5.832073   5.733711   2.567664   3.028846
    29  F    7.023706   5.795320   6.336569   2.567664   3.028846
    30  F    5.255576   3.965651   4.294269   2.567664   3.803218
    31  O    4.525480   4.292932   4.047044   1.670000   2.566082
                   26         27         28         29         30
    26  O    0.000000
    27  C    2.659333   0.000000
    28  F    3.803218   1.350000   0.000000
    29  F    3.028846   1.350000   2.204541   0.000000
    30  F    3.028846   1.350000   2.204541   2.204541   0.000000
    31  O    2.566082   2.817629   3.140149   3.984035   3.140149
                   31
    31  O    0.000000
 Stoichiometry    C11H10F3NO5S
 Framework group  C1[X(C11H10F3NO5S)]
 Deg. of freedom    87
 Full point group                 C1      NOp   1
 Largest Abelian subgroup         C1      NOp   1
 Largest concise Abelian subgroup C1      NOp   1
                         Standard orientation:                         
 ---------------------------------------------------------------------
 Center     Atomic      Atomic             Coordinates (Angstroms)
 Number     Number       Type             X           Y           Z
 ---------------------------------------------------------------------
      1          6           0       -2.403571   -0.758517   -0.586418
      2          6           0       -3.516905   -0.141688    0.000038
      3          6           0       -3.405929    1.154013    0.522308
      4          6           0       -2.181619    1.832885    0.458122
      5          6           0       -1.068284    1.216055   -0.128334
      6          6           0       -1.179260   -0.079645   -0.650604
      7          1           0       -2.488303   -1.747813   -0.985183
      8          1           0       -4.255984    1.624976    0.970080
      9          1           0       -2.096886    2.822181    0.856887
     10          1           0       -0.329205   -0.550608   -1.098376
     11          7           0       -4.801146   -0.853791    0.067366
     12          8           0       -4.895920   -1.960323   -0.378654
     13          8           0       -5.751937   -0.327017    0.568201
     14          6           0        0.277111    1.962068   -0.198868
     15          6           0        1.353742    1.365574   -0.765991
     16          6           0        2.699138    2.111587   -0.836525
     17          1           0        2.520144    3.164481   -0.901912
     18          1           0        3.270361    1.900878    0.043365
     19          1           0        3.241697    1.787735   -1.700035
     20          6           0        0.399063    3.385915    0.375055
     21          1           0       -0.543889    3.885093    0.294048
     22          1           0        0.686934    3.332194    1.404202
     23          1           0        1.138877    3.929755   -0.174321
     24         16           0        1.601632   -1.069776   -0.107592
     25          8           0        1.485255   -2.428533   -0.655278
     26          8           0        0.663113   -0.910879    1.012076
     27          6           0        3.264253   -0.803020    0.469410
     28          9           0        4.126393   -0.948986   -0.559137
     29          9           0        3.556185   -1.702917    1.432458
     30          9           0        3.371159    0.445158    0.972524
     31          8           0        1.240502    0.043430   -1.298918
 ---------------------------------------------------------------------
 Rotational constants (GHZ):           0.5746129           0.1644331           0.1395681
 General basis read from cards:  (5D, 7F)
 There are   638 symmetry adapted cartesian basis functions of A   symmetry.
 There are   565 symmetry adapted basis functions of A   symmetry.
   565 basis functions,   936 primitive gaussians,   638 cartesian basis functions
    83 alpha electrons       83 beta electrons
       nuclear repulsion energy      2025.9175103833 Hartrees.
 NAtoms=   31 NActive=   31 NUniq=   31 SFac= 1.00D+00 NAtFMM=   60 NAOKFM=F Big=F
 Integral buffers will be    131072 words long.
 Raffenetti 2 integral format.
 Two-electron integral symmetry is turned on.
 One-electron integrals computed using PRISM.
 NBasis=   565 RedAO= T EigKep=  1.65D-04  NBF=   565
 NBsUse=   565 1.00D-06 EigRej= -1.00D+00 NBFU=   565
 ExpMin= 4.91D-02 ExpMax= 6.07D+04 ExpMxC= 2.07D+03 IAcc=3 IRadAn=         5 AccDes= 0.00D+00
 Harris functional with IExCor= 1009 and IRadAn=       5 diagonalized for initial guess.
 HarFok:  IExCor= 1009 AccDes= 0.00D+00 IRadAn=         5 IDoV= 1 UseB2=F ITyADJ=14
 ICtDFT=  3500011 ScaDFX=  1.000000  1.000000  1.000000  1.000000
 FoFCou: FMM=F IPFlag=           0 FMFlag=      100000 FMFlg1=           0
         NFxFlg=           0 DoJE=T BraDBF=F KetDBF=T FulRan=T
         wScrn=  0.000000 ICntrl=       500 IOpCl=  0 I1Cent=   200000004 NGrid=           0
         NMat0=    1 NMatS0=      1 NMatT0=    0 NMatD0=    1 NMtDS0=    0 NMtDT0=    0
 Petite list used in FoFCou.
 Requested convergence on RMS density matrix=1.00D-08 within 128 cycles.
 Requested convergence on MAX density matrix=1.00D-06.
 Requested convergence on             energy=1.00D-06.
 No special actions if energy rises.
 EnCoef did     1 forward-backward iterations
 SCF Done:  E(RM062X) =  -1553.11475748     A.U. after   14 cycles
            NFock= 14  Conv=0.88D-08     -V/T= 2.0054

 **********************************************************************

            Population analysis using the SCF Density.

 **********************************************************************

 Orbital symmetries:
       Occupied  (A) (A) (A) (A) (A) (A) (A) (A) (A) (A) (A) (A)
                 (A) (A) (A) (A) (A) (A) (A) (A) (A) (A) (A) (A)
                 (A) (A) (A) (A) (A) (A) (A) (A) (A) (A) (A) (A)
                 (A) (A) (A) (A) (A) (A) (A) (A) (A) (A) (A) (A)
                 (A) (A) (A) (A) (A) (A) (A) (A) (A) (A) (A) (A)
                 (A) (A) (A) (A) (A) (A) (A) (A) (A) (A) (A) (A)
                 (A) (A) (A) (A) (A) (A) (A) (A) (A) (A) (A)
       Virtual   (A) (A) (A) (A) (A) (A) (A) (A) (A) (A) (A) (A)
                 (A) (A) (A) (A) (A) (A) (A) (A) (A) (A) (A) (A)
                 (A) (A) (A) (A) (A) (A) (A) (A) (A) (A) (A) (A)
                 (A) (A) (A) (A) (A) (A) (A) (A) (A) (A) (A) (A)
                 (A) (A) (A) (A) (A) (A) (A) (A) (A) (A) (A) (A)
                 (A) (A) (A) (A) (A) (A) (A) (A) (A) (A) (A) (A)
                 (A) (A) (A) (A) (A) (A) (A) (A) (A) (A) (A) (A)
                 (A) (A) (A) (A) (A) (A) (A) (A) (A) (A) (A) (A)
                 (A) (A) (A) (A) (A) (A) (A) (A) (A) (A) (A) (A)
                 (A) (A) (A) (A) (A) (A) (A) (A) (A) (A) (A) (A)
                 (A) (A) (A) (A) (A) (A) (A) (A) (A) (A) (A) (A)
                 (A) (A) (A) (A) (A) (A) (A) (A) (A) (A) (A) (A)
                 (A) (A) (A) (A) (A) (A) (A) (A) (A) (A) (A) (A)
                 (A) (A) (A) (A) (A) (A) (A) (A) (A) (A) (A) (A)
                 (A) (A) (A) (A) (A) (A) (A) (A) (A) (A) (A) (A)
                 (A) (A) (A) (A) (A) (A) (A) (A) (A) (A) (A) (A)
                 (A) (A) (A) (A) (A) (A) (A) (A) (A) (A) (A) (A)
                 (A) (A) (A) (A) (A) (A) (A) (A) (A) (A) (A) (A)
                 (A) (A) (A) (A) (A) (A) (A) (A) (A) (A) (A) (A)
                 (A) (A) (A) (A) (A) (A) (A) (A) (A) (A) (A) (A)
                 (A) (A) (A) (A) (A) (A) (A) (A) (A) (A) (A) (A)
                 (A) (A) (A) (A) (A) (A) (A) (A) (A) (A) (A) (A)
                 (A) (A) (A) (A) (A) (A) (A) (A) (A) (A) (A) (A)
                 (A) (A) (A) (A) (A) (A) (A) (A) (A) (A) (A) (A)
                 (A) (A) (A) (A) (A) (A) (A) (A) (A) (A) (A) (A)
                 (A) (A) (A) (A) (A) (A) (A) (A) (A) (A) (A) (A)
                 (A) (A) (A) (A) (A) (A) (A) (A) (A) (A) (A) (A)
                 (A) (A) (A) (A) (A) (A) (A) (A) (A) (A) (A) (A)
                 (A) (A) (A) (A) (A) (A) (A) (A) (A) (A) (A) (A)
                 (A) (A) (A) (A) (A) (A) (A) (A) (A) (A) (A) (A)
                 (A) (A) (A) (A) (A) (A) (A) (A) (A) (A) (A) (A)
                 (A) (A) (A) (A) (A) (A) (A) (A) (A) (A) (A) (A)
                 (A) (A) (A) (A) (A) (A) (A) (A) (A) (A) (A) (A)
                 (A) (A) (A) (A) (A) (A) (A) (A) (A) (A) (A) (A)
                 (A) (A) (A) (A) (A) (A) (A) (A) (A) (A) (A) (A)
                 (A) (A) (A) (A) (A) (A) (A) (A) (A) (A) (A) (A)
                 (A) (A) (A) (A) (A) (A) (A) (A) (A) (A) (A) (A)
                 (A) (A) (A) (A) (A) (A) (A) (A) (A) (A) (A) (A)
                 (A) (A) (A) (A) (A) (A) (A) (A) (A) (A) (A) (A)
                 (A) (A) (A) (A) (A) (A) (A) (A) (A) (A) (A) (A)
                 (A) (A)
 The electronic state is 1-A.
 Alpha  occ. eigenvalues --  -90.17902 -25.35505 -25.35149 -25.35046 -19.75366
 Alpha  occ. eigenvalues --  -19.67483 -19.66843 -19.65449 -19.65438 -14.99815
 Alpha  occ. eigenvalues --  -10.90540 -10.66242 -10.62863 -10.61428 -10.60395
 Alpha  occ. eigenvalues --  -10.59202 -10.58875 -10.58695 -10.58405 -10.58109
 Alpha  occ. eigenvalues --  -10.57600  -8.50620  -6.42846  -6.42686  -6.42563
 Alpha  occ. eigenvalues --   -1.52955  -1.44792  -1.44034  -1.38706  -1.30960
 Alpha  occ. eigenvalues --   -1.22160  -1.18402  -1.15567  -0.99505  -0.95286
 Alpha  occ. eigenvalues --   -0.93112  -0.90630  -0.86486  -0.85147  -0.83215
 Alpha  occ. eigenvalues --   -0.80577  -0.78114  -0.76454  -0.75842  -0.74255
 Alpha  occ. eigenvalues --   -0.71778  -0.68456  -0.66286  -0.65205  -0.64718
 Alpha  occ. eigenvalues --   -0.64457  -0.63598  -0.62766  -0.61505  -0.61288
 Alpha  occ. eigenvalues --   -0.60468  -0.60073  -0.59901  -0.58573  -0.57619
 Alpha  occ. eigenvalues --   -0.56030  -0.55322  -0.53707  -0.53440  -0.52059
 Alpha  occ. eigenvalues --   -0.51621  -0.50133  -0.49768  -0.47791  -0.47571
 Alpha  occ. eigenvalues --   -0.47380  -0.46985  -0.45319  -0.43884  -0.43500
 Alpha  occ. eigenvalues --   -0.41712  -0.40877  -0.39403  -0.37912  -0.37563
 Alpha  occ. eigenvalues --   -0.37331  -0.33166  -0.31022
 Alpha virt. eigenvalues --   -0.06434  -0.02579  -0.00378   0.00272   0.02818
 Alpha virt. eigenvalues --    0.04482   0.05758   0.06528   0.07358   0.07552
 Alpha virt. eigenvalues --    0.08792   0.09402   0.09695   0.10609   0.11638
 Alpha virt. eigenvalues --    0.12457   0.13733   0.14526   0.15094   0.15151
 Alpha virt. eigenvalues --    0.16257   0.16746   0.17104   0.17419   0.17994
 Alpha virt. eigenvalues --    0.18349   0.18499   0.19161   0.20014   0.20359
 Alpha virt. eigenvalues --    0.20958   0.22327   0.23636   0.24307   0.25925
 Alpha virt. eigenvalues --    0.26232   0.27219   0.27380   0.27861   0.29106
 Alpha virt. eigenvalues --    0.30176   0.31178   0.31435   0.32180   0.33048
 Alpha virt. eigenvalues --    0.35068   0.36046   0.37232   0.37999   0.39192
 Alpha virt. eigenvalues --    0.40136   0.40805   0.41452   0.41602   0.42322
 Alpha virt. eigenvalues --    0.43012   0.43834   0.44273   0.44443   0.44772
 Alpha virt. eigenvalues --    0.45338   0.46598   0.47091   0.47625   0.48010
 Alpha virt. eigenvalues --    0.48522   0.48981   0.50900   0.51774   0.52248
 Alpha virt. eigenvalues --    0.52297   0.53026   0.53597   0.54600   0.55281
 Alpha virt. eigenvalues --    0.56001   0.56691   0.57171   0.57716   0.59443
 Alpha virt. eigenvalues --    0.59908   0.60286   0.60729   0.61274   0.62063
 Alpha virt. eigenvalues --    0.62315   0.63545   0.63998   0.64444   0.65344
 Alpha virt. eigenvalues --    0.66335   0.66787   0.67552   0.68085   0.68214
 Alpha virt. eigenvalues --    0.68991   0.69342   0.69479   0.70376   0.70932
 Alpha virt. eigenvalues --    0.71013   0.72352   0.72505   0.72846   0.73373
 Alpha virt. eigenvalues --    0.73670   0.74481   0.74628   0.75118   0.75703
 Alpha virt. eigenvalues --    0.76588   0.77359   0.78160   0.78454   0.78866
 Alpha virt. eigenvalues --    0.78991   0.79686   0.79956   0.80308   0.81539
 Alpha virt. eigenvalues --    0.81985   0.82844   0.83954   0.85195   0.85567
 Alpha virt. eigenvalues --    0.87655   0.88708   0.89285   0.90184   0.91515
 Alpha virt. eigenvalues --    0.92003   0.93941   0.95924   0.96643   0.98235
 Alpha virt. eigenvalues --    0.98490   0.99898   1.01088   1.05403   1.05836
 Alpha virt. eigenvalues --    1.08734   1.08997   1.09557   1.12010   1.12301
 Alpha virt. eigenvalues --    1.12847   1.15588   1.16228   1.19177   1.19879
 Alpha virt. eigenvalues --    1.20658   1.22086   1.22712   1.22884   1.23215
 Alpha virt. eigenvalues --    1.24974   1.26602   1.27462   1.28112   1.29259
 Alpha virt. eigenvalues --    1.30637   1.30967   1.31531   1.32757   1.33152
 Alpha virt. eigenvalues --    1.34458   1.35692   1.37658   1.38875   1.39712
 Alpha virt. eigenvalues --    1.40961   1.41662   1.44919   1.47211   1.48475
 Alpha virt. eigenvalues --    1.48929   1.51500   1.52464   1.53156   1.55243
 Alpha virt. eigenvalues --    1.55920   1.56328   1.57556   1.57741   1.58918
 Alpha virt. eigenvalues --    1.60150   1.61565   1.63594   1.63734   1.65534
 Alpha virt. eigenvalues --    1.66224   1.66290   1.67045   1.68864   1.69492
 Alpha virt. eigenvalues --    1.70953   1.72406   1.73383   1.76033   1.76480
 Alpha virt. eigenvalues --    1.77511   1.78250   1.78350   1.79491   1.79609
 Alpha virt. eigenvalues --    1.81040   1.81726   1.82388   1.83782   1.83866
 Alpha virt. eigenvalues --    1.84212   1.85467   1.86942   1.87995   1.89334
 Alpha virt. eigenvalues --    1.89873   1.90903   1.91526   1.92099   1.92484
 Alpha virt. eigenvalues --    1.92953   1.94150   1.94478   1.94700   1.95657
 Alpha virt. eigenvalues --    1.96704   1.96985   1.98256   1.99235   2.00725
 Alpha virt. eigenvalues --    2.01619   2.01824   2.02282   2.02769   2.03582
 Alpha virt. eigenvalues --    2.05118   2.06224   2.07567   2.08031   2.09122
 Alpha virt. eigenvalues --    2.09863   2.10270   2.10625   2.12215   2.14207
 Alpha virt. eigenvalues --    2.15051   2.15465   2.16748   2.17531   2.18333
 Alpha virt. eigenvalues --    2.20374   2.21021   2.21441   2.22916   2.23861
 Alpha virt. eigenvalues --    2.24708   2.25567   2.26369   2.26900   2.28677
 Alpha virt. eigenvalues --    2.29191   2.29368   2.29766   2.31229   2.31939
 Alpha virt. eigenvalues --    2.33554   2.34422   2.35808   2.36202   2.36855
 Alpha virt. eigenvalues --    2.37906   2.38558   2.39525   2.40144   2.40901
 Alpha virt. eigenvalues --    2.41185   2.42497   2.42792   2.44829   2.47132
 Alpha virt. eigenvalues --    2.48366   2.49033   2.49531   2.50129   2.52198
 Alpha virt. eigenvalues --    2.52756   2.53185   2.54034   2.54510   2.55281
 Alpha virt. eigenvalues --    2.56703   2.60296   2.61352   2.63354   2.64991
 Alpha virt. eigenvalues --    2.67512   2.68939   2.69921   2.71373   2.73201
 Alpha virt. eigenvalues --    2.75107   2.77179   2.77437   2.78038   2.79034
 Alpha virt. eigenvalues --    2.79807   2.80871   2.83273   2.85268   2.86017
 Alpha virt. eigenvalues --    2.88876   2.89438   2.91760   2.93421   2.93805
 Alpha virt. eigenvalues --    2.95254   2.96127   2.97140   2.97966   2.98512
 Alpha virt. eigenvalues --    2.99441   3.00416   3.02907   3.04891   3.05300
 Alpha virt. eigenvalues --    3.05802   3.09134   3.13061   3.16316   3.17285
 Alpha virt. eigenvalues --    3.20802   3.25512   3.27281   3.28840   3.30644
 Alpha virt. eigenvalues --    3.31303   3.36055   3.41779   3.45804   3.48721
 Alpha virt. eigenvalues --    3.52498   3.55602   3.59135   3.62476   3.64372
 Alpha virt. eigenvalues --    3.66523   3.70587   3.75492   3.91635   3.92709
 Alpha virt. eigenvalues --    3.93806   4.07191   4.11789   4.17202   4.17828
 Alpha virt. eigenvalues --    4.21586   4.26701   4.45762   4.62854   4.63582
 Alpha virt. eigenvalues --    4.66417   4.67996   4.72310   4.78276   4.82141
 Alpha virt. eigenvalues --    4.95737   4.96349   5.04906   5.08098   5.09011
 Alpha virt. eigenvalues --    5.10030   5.11320   5.12307   5.12656   5.13513
 Alpha virt. eigenvalues --    5.14403   5.15254   5.16932   5.17516   5.19595
 Alpha virt. eigenvalues --    5.21842   5.24279   5.25283   5.27747   5.35006
 Alpha virt. eigenvalues --    5.36395   5.39769   5.44360   5.51500   5.54642
 Alpha virt. eigenvalues --    5.55252   5.57355   5.61534   6.10767   6.10788
 Alpha virt. eigenvalues --    6.13828   6.14480   6.19323   6.24110   6.29181
 Alpha virt. eigenvalues --    6.30543   6.31934   6.33488   6.36352   6.39505
 Alpha virt. eigenvalues --    6.39770   6.40260   6.47680   6.53768   6.58681
 Alpha virt. eigenvalues --    6.60323   6.60515   6.61690   6.67501   6.71578
 Alpha virt. eigenvalues --    6.72733   6.74179   6.76637   6.76772   6.77061
 Alpha virt. eigenvalues --    6.77555   6.77892   6.78360   6.78587   6.79051
 Alpha virt. eigenvalues --    6.79379   6.80528   6.80581   6.81008   6.81526
 Alpha virt. eigenvalues --    6.81783   6.82105   6.82666   6.82910   6.84227
 Alpha virt. eigenvalues --    6.85523   6.85809   6.86654   6.86975   6.89964
 Alpha virt. eigenvalues --    6.98986   7.01367   7.02755   7.03241   7.03984
 Alpha virt. eigenvalues --    7.05199   7.11533   7.11924   7.16462   7.19678
 Alpha virt. eigenvalues --    7.39377   7.41927   7.58079   7.69469   8.18486
 Alpha virt. eigenvalues --    8.21080   8.21140   8.23430   8.24063   8.25718
 Alpha virt. eigenvalues --    8.33774   8.37184   8.38125   8.50703   8.51095
 Alpha virt. eigenvalues --    8.55365   8.69488   8.69955   8.72315   9.17967
 Alpha virt. eigenvalues --    9.33977   9.50055  14.28752  15.58269  16.53553
 Alpha virt. eigenvalues --   21.63165  43.63883  43.83431  43.87938  57.05463
 Alpha virt. eigenvalues --   57.09202  57.23896
          Condensed to atoms (all electrons):
               1          2          3          4          5          6
     1  C    5.275507   0.223425  -0.030420  -0.123455   0.126968   0.143256
     2  C    0.223425   5.380289   0.234263   0.133319  -0.187056   0.143202
     3  C   -0.030420   0.234263   5.236474   0.177526   0.119535  -0.130029
     4  C   -0.123455   0.133319   0.177526   5.268593   0.242907   0.030250
     5  C    0.126968  -0.187056   0.119535   0.242907   5.279554   0.238610
     6  C    0.143256   0.143202  -0.130029   0.030250   0.238610   5.284803
     7  H    0.497796  -0.057668   0.012562  -0.002462   0.017089  -0.101795
     8  H    0.012426  -0.049567   0.482275  -0.093566   0.016010  -0.002417
     9  H   -0.001302   0.016163  -0.059459   0.454320  -0.070539   0.013394
    10  H   -0.057847   0.016599  -0.001072   0.013301  -0.057488   0.474683
    11  N   -0.047181   0.086735  -0.040379   0.019309  -0.000196   0.022748
    12  O   -0.020636  -0.069023   0.011388  -0.002743  -0.000503   0.005184
    13  O    0.012082  -0.071946  -0.022014   0.004693  -0.000386  -0.003022
    14  C    0.008160   0.001574   0.009167  -0.081725   0.300897  -0.059860
    15  C    0.001456  -0.000318   0.000026   0.015882  -0.021202  -0.041875
    16  C    0.000017  -0.000001   0.000004  -0.000231   0.007886  -0.000115
    17  H   -0.000001   0.000000  -0.000000   0.000001   0.000286   0.000001
    18  H   -0.000000  -0.000000  -0.000000   0.000015  -0.000296   0.000051
    19  H    0.000001  -0.000000  -0.000000   0.000008  -0.000311   0.000017
    20  C   -0.000187   0.000014   0.000825  -0.009158  -0.051488   0.007841
    21  H    0.000032  -0.000077   0.001507   0.006990  -0.021699  -0.000852
    22  H    0.000008   0.000000   0.000029   0.001677  -0.001463  -0.000280
    23  H    0.000003   0.000003  -0.000036   0.000191   0.007939  -0.000078
    24  S    0.000127   0.000214  -0.000171  -0.000012  -0.003434   0.002011
    25  O    0.000100  -0.000002   0.000001  -0.000003   0.000261  -0.005361
    26  O   -0.002437  -0.000380   0.000183  -0.000593  -0.013021  -0.018002
    27  C    0.000016   0.000000  -0.000000  -0.000010  -0.000175  -0.000050
    28  F    0.000000  -0.000000  -0.000000   0.000000   0.000002   0.000001
    29  F   -0.000000   0.000000  -0.000000   0.000000  -0.000002   0.000006
    30  F    0.000000  -0.000000   0.000000  -0.000001  -0.000068   0.000074
    31  O    0.002437  -0.000217  -0.000056  -0.000384   0.002552  -0.062846
               7          8          9         10         11         12
     1  C    0.497796   0.012426  -0.001302  -0.057847  -0.047181  -0.020636
     2  C   -0.057668  -0.049567   0.016163   0.016599   0.086735  -0.069023
     3  C    0.012562   0.482275  -0.059459  -0.001072  -0.040379   0.011388
     4  C   -0.002462  -0.093566   0.454320   0.013301   0.019309  -0.002743
     5  C    0.017089   0.016010  -0.070539  -0.057488  -0.000196  -0.000503
     6  C   -0.101795  -0.002417   0.013394   0.474683   0.022748   0.005184
     7  H    0.629542   0.000022   0.000021  -0.012575  -0.015567  -0.009964
     8  H    0.000022   0.631406  -0.011910   0.000026  -0.015013   0.003017
     9  H    0.000021  -0.011910   0.674552  -0.000111  -0.001431   0.000016
    10  H   -0.012575   0.000026  -0.000111   0.715961  -0.002175   0.000631
    11  N   -0.015567  -0.015013  -0.001431  -0.002175   5.898045   0.222017
    12  O   -0.009964   0.003017   0.000016   0.000631   0.222017   8.568182
    13  O    0.003101  -0.010383   0.000533   0.000039   0.217111  -0.192668
    14  C   -0.000339  -0.000296  -0.023965  -0.024138   0.001024  -0.000057
    15  C    0.000095   0.000005   0.000606   0.004502  -0.000123  -0.000003
    16  C    0.000000  -0.000000   0.000004  -0.000251  -0.000002   0.000000
    17  H   -0.000000  -0.000000  -0.000008   0.000037   0.000000  -0.000000
    18  H    0.000000   0.000000   0.000001  -0.000074   0.000000  -0.000000
    19  H   -0.000000   0.000000   0.000000   0.000083  -0.000000   0.000000
    20  C    0.000002  -0.000015   0.005744  -0.000268  -0.000043   0.000001
    21  H    0.000000   0.000029  -0.000366  -0.000003  -0.000060  -0.000000
    22  H   -0.000000  -0.000000   0.000355  -0.000004  -0.000001  -0.000000
    23  H   -0.000000  -0.000000   0.000064   0.000016  -0.000003   0.000000
    24  S   -0.000324  -0.000000   0.000009  -0.011922  -0.000091   0.000008
    25  O    0.000244   0.000000   0.000000   0.007480   0.000118  -0.000034
    26  O    0.000296  -0.000001  -0.000011  -0.016356   0.001670  -0.000279
    27  C    0.000001   0.000000  -0.000000  -0.000695   0.000012  -0.000001
    28  F   -0.000000  -0.000000   0.000000  -0.000008  -0.000001   0.000000
    29  F   -0.000000  -0.000000   0.000000  -0.000006  -0.000001   0.000000
    30  F   -0.000000  -0.000000  -0.000000  -0.000138  -0.000001   0.000000
    31  O    0.000303  -0.000001  -0.000018  -0.066128   0.000211  -0.000034
              13         14         15         16         17         18
     1  C    0.012082   0.008160   0.001456   0.000017  -0.000001  -0.000000
     2  C   -0.071946   0.001574  -0.000318  -0.000001   0.000000  -0.000000
     3  C   -0.022014   0.009167   0.000026   0.000004  -0.000000  -0.000000
     4  C    0.004693  -0.081725   0.015882  -0.000231   0.000001   0.000015
     5  C   -0.000386   0.300897  -0.021202   0.007886   0.000286  -0.000296
     6  C   -0.003022  -0.059860  -0.041875  -0.000115   0.000001   0.000051
     7  H    0.003101  -0.000339   0.000095   0.000000  -0.000000   0.000000
     8  H   -0.010383  -0.000296   0.000005  -0.000000  -0.000000   0.000000
     9  H    0.000533  -0.023965   0.000606   0.000004  -0.000008   0.000001
    10  H    0.000039  -0.024138   0.004502  -0.000251   0.000037  -0.000074
    11  N    0.217111   0.001024  -0.000123  -0.000002   0.000000   0.000000
    12  O   -0.192668  -0.000057  -0.000003   0.000000  -0.000000  -0.000000
    13  O    8.579540  -0.000058   0.000009   0.000000  -0.000000  -0.000000
    14  C   -0.000058   5.123565   0.545658  -0.078623  -0.025709  -0.007785
    15  C    0.000009   0.545658   5.227798   0.423515   0.008360  -0.020447
    16  C    0.000000  -0.078623   0.423515   4.480889   0.384576   0.415423
    17  H   -0.000000  -0.025709   0.008360   0.384576   0.607543  -0.013028
    18  H   -0.000000  -0.007785  -0.020447   0.415423  -0.013028   0.596612
    19  H    0.000000   0.008478  -0.019153   0.383976  -0.010169  -0.017562
    20  C    0.000007   0.417834  -0.074061  -0.003039  -0.000127   0.002110
    21  H    0.000011  -0.002279   0.010071   0.000359   0.000550  -0.000091
    22  H    0.000001  -0.004363  -0.009365   0.003031  -0.001651   0.001165
    23  H   -0.000000  -0.004729  -0.023313   0.001698  -0.002782  -0.002063
    24  S   -0.000002  -0.000882  -0.047677  -0.009520   0.000260  -0.000328
    25  O   -0.000000  -0.000060   0.003081  -0.000031   0.000000  -0.000013
    26  O   -0.000042   0.002292  -0.001854  -0.000213  -0.000010   0.000305
    27  C   -0.000000   0.000840   0.013078   0.010186  -0.000359   0.006036
    28  F    0.000000  -0.000106  -0.001629  -0.001043   0.000039  -0.000663
    29  F    0.000000  -0.000006  -0.000060  -0.000078   0.000003  -0.000035
    30  F    0.000000   0.000710  -0.003915  -0.039569   0.001202  -0.040046
    31  O   -0.000003  -0.055402   0.116845  -0.055625   0.004871   0.001971
              19         20         21         22         23         24
     1  C    0.000001  -0.000187   0.000032   0.000008   0.000003   0.000127
     2  C   -0.000000   0.000014  -0.000077   0.000000   0.000003   0.000214
     3  C   -0.000000   0.000825   0.001507   0.000029  -0.000036  -0.000171
     4  C    0.000008  -0.009158   0.006990   0.001677   0.000191  -0.000012
     5  C   -0.000311  -0.051488  -0.021699  -0.001463   0.007939  -0.003434
     6  C    0.000017   0.007841  -0.000852  -0.000280  -0.000078   0.002011
     7  H   -0.000000   0.000002   0.000000  -0.000000  -0.000000  -0.000324
     8  H    0.000000  -0.000015   0.000029  -0.000000  -0.000000  -0.000000
     9  H    0.000000   0.005744  -0.000366   0.000355   0.000064   0.000009
    10  H    0.000083  -0.000268  -0.000003  -0.000004   0.000016  -0.011922
    11  N   -0.000000  -0.000043  -0.000060  -0.000001  -0.000003  -0.000091
    12  O    0.000000   0.000001  -0.000000  -0.000000   0.000000   0.000008
    13  O    0.000000   0.000007   0.000011   0.000001  -0.000000  -0.000002
    14  C    0.008478   0.417834  -0.002279  -0.004363  -0.004729  -0.000882
    15  C   -0.019153  -0.074061   0.010071  -0.009365  -0.023313  -0.047677
    16  C    0.383976  -0.003039   0.000359   0.003031   0.001698  -0.009520
    17  H   -0.010169  -0.000127   0.000550  -0.001651  -0.002782   0.000260
    18  H   -0.017562   0.002110  -0.000091   0.001165  -0.002063  -0.000328
    19  H    0.596056   0.000808  -0.000005  -0.000118   0.000203  -0.001810
    20  C    0.000808   4.470960   0.377420   0.388059   0.393760  -0.000184
    21  H   -0.000005   0.377420   0.604888  -0.019266  -0.014613  -0.000030
    22  H   -0.000118   0.388059  -0.019266   0.585195  -0.014779   0.000067
    23  H    0.000203   0.393760  -0.014613  -0.014779   0.613607   0.000048
    24  S   -0.001810  -0.000184  -0.000030   0.000067   0.000048  13.929996
    25  O    0.000035  -0.000001   0.000000  -0.000000   0.000000   0.565294
    26  O    0.000050  -0.000260   0.000011   0.000177  -0.000012   0.525347
    27  C    0.002862   0.000057   0.000001  -0.000036   0.000001   0.263926
    28  F   -0.000193  -0.000001   0.000000   0.000001  -0.000000  -0.051834
    29  F    0.000013  -0.000000  -0.000000   0.000000  -0.000000  -0.052317
    30  F    0.000126  -0.000031  -0.000001   0.000081   0.000013  -0.044253
    31  O   -0.001243   0.005847  -0.000189  -0.000070  -0.000107   0.222746
              25         26         27         28         29         30
     1  C    0.000100  -0.002437   0.000016   0.000000  -0.000000   0.000000
     2  C   -0.000002  -0.000380   0.000000  -0.000000   0.000000  -0.000000
     3  C    0.000001   0.000183  -0.000000  -0.000000  -0.000000   0.000000
     4  C   -0.000003  -0.000593  -0.000010   0.000000   0.000000  -0.000001
     5  C    0.000261  -0.013021  -0.000175   0.000002  -0.000002  -0.000068
     6  C   -0.005361  -0.018002  -0.000050   0.000001   0.000006   0.000074
     7  H    0.000244   0.000296   0.000001  -0.000000  -0.000000  -0.000000
     8  H    0.000000  -0.000001   0.000000  -0.000000  -0.000000  -0.000000
     9  H    0.000000  -0.000011  -0.000000   0.000000   0.000000  -0.000000
    10  H    0.007480  -0.016356  -0.000695  -0.000008  -0.000006  -0.000138
    11  N    0.000118   0.001670   0.000012  -0.000001  -0.000001  -0.000001
    12  O   -0.000034  -0.000279  -0.000001   0.000000   0.000000   0.000000
    13  O   -0.000000  -0.000042  -0.000000   0.000000   0.000000   0.000000
    14  C   -0.000060   0.002292   0.000840  -0.000106  -0.000006   0.000710
    15  C    0.003081  -0.001854   0.013078  -0.001629  -0.000060  -0.003915
    16  C   -0.000031  -0.000213   0.010186  -0.001043  -0.000078  -0.039569
    17  H    0.000000  -0.000010  -0.000359   0.000039   0.000003   0.001202
    18  H   -0.000013   0.000305   0.006036  -0.000663  -0.000035  -0.040046
    19  H    0.000035   0.000050   0.002862  -0.000193   0.000013   0.000126
    20  C   -0.000001  -0.000260   0.000057  -0.000001  -0.000000  -0.000031
    21  H    0.000000   0.000011   0.000001   0.000000  -0.000000  -0.000001
    22  H   -0.000000   0.000177  -0.000036   0.000001   0.000000   0.000081
    23  H    0.000000  -0.000012   0.000001  -0.000000  -0.000000   0.000013
    24  S    0.565294   0.525347   0.263926  -0.051834  -0.052317  -0.044253
    25  O    7.971257  -0.073325  -0.033716   0.000262   0.000174   0.001433
    26  O   -0.073325   8.063151  -0.028881   0.001214  -0.000104  -0.000046
    27  C   -0.033716  -0.028881   4.295014   0.259470   0.291798   0.221922
    28  F    0.000262   0.001214   0.259470   9.118088  -0.065530  -0.061908
    29  F    0.000174  -0.000104   0.291798  -0.065530   9.080641  -0.062162
    30  F    0.001433  -0.000046   0.221922  -0.061908  -0.062162   9.235024
    31  O   -0.028887  -0.039894  -0.019886   0.002024   0.000570  -0.000025
              31
     1  C    0.002437
     2  C   -0.000217
     3  C   -0.000056
     4  C   -0.000384
     5  C    0.002552
     6  C   -0.062846
     7  H    0.000303
     8  H   -0.000001
     9  H   -0.000018
    10  H   -0.066128
    11  N    0.000211
    12  O   -0.000034
    13  O   -0.000003
    14  C   -0.055402
    15  C    0.116845
    16  C   -0.055625
    17  H    0.004871
    18  H    0.001971
    19  H   -0.001243
    20  C    0.005847
    21  H   -0.000189
    22  H   -0.000070
    23  H   -0.000107
    24  S    0.222746
    25  O   -0.028887
    26  O   -0.039894
    27  C   -0.019886
    28  F    0.002024
    29  F    0.000570
    30  F   -0.000025
    31  O    8.316185
 Mulliken charges:
               1
     1  C   -0.020352
     2  C    0.200452
     3  C   -0.002130
     4  C   -0.054640
     5  C    0.068832
     6  C    0.060448
     7  H    0.039619
     8  H    0.037954
     9  H    0.003339
    10  H    0.017901
    11  N    0.653265
    12  O   -0.514500
    13  O   -0.516601
    14  C   -0.049818
    15  C   -0.105993
    16  C    0.076777
    17  H    0.046115
    18  H    0.078741
    19  H    0.057847
    20  C    0.067577
    21  H    0.057662
    22  H    0.071549
    23  H    0.044968
    24  S    0.714735
    25  O   -0.408310
    26  O   -0.398973
    27  C    0.718590
    28  F   -0.198186
    29  F   -0.192907
    30  F   -0.208420
    31  O   -0.345545
 Sum of Mulliken charges =  -0.00000
 Mulliken charges with hydrogens summed into heavy atoms:
               1
     1  C    0.019267
     2  C    0.200452
     3  C    0.035824
     4  C   -0.051300
     5  C    0.068832
     6  C    0.078349
    11  N    0.653265
    12  O   -0.514500
    13  O   -0.516601
    14  C   -0.049818
    15  C   -0.105993
    16  C    0.259480
    20  C    0.241756
    24  S    0.714735
    25  O   -0.408310
    26  O   -0.398973
    27  C    0.718590
    28  F   -0.198186
    29  F   -0.192907
    30  F   -0.208420
    31  O   -0.345545
 Electronic spatial extent (au):  <R**2>=           7226.2915
 Charge=             -0.0000 electrons
 Dipole moment (field-independent basis, Debye):
    X=              6.7850    Y=              6.5876    Z=             -0.1313  Tot=              9.4578
 Quadrupole moment (field-independent basis, Debye-Ang):
   XX=           -149.2046   YY=           -122.9250   ZZ=           -128.3368
   XY=             -5.5090   XZ=              0.5212   YZ=              0.8812
 Traceless Quadrupole moment (field-independent basis, Debye-Ang):
   XX=            -15.7158   YY=             10.5638   ZZ=              5.1520
   XY=             -5.5090   XZ=              0.5212   YZ=              0.8812
 Octapole moment (field-independent basis, Debye-Ang**2):
  XXX=            300.7723  YYY=             22.6085  ZZZ=             12.0795  XYY=             31.4427
  XXY=             53.6534  XXZ=              0.3150  XZZ=             20.0120  YZZ=             -9.6922
  YYZ=             15.0509  XYZ=             -8.8208
 Hexadecapole moment (field-independent basis, Debye-Ang**3):
 XXXX=          -7645.4118 YYYY=          -1844.3166 ZZZZ=           -471.9399 XXXY=           -317.6620
 XXXZ=             99.8462 YYYX=            -40.2660 YYYZ=             -5.5715 ZZZX=             27.5510
 ZZZY=             -0.1535 XXYY=          -1440.8547 XXZZ=          -1136.9690 YYZZ=           -393.3998
 XXYZ=            -14.7099 YYXZ=            -11.4182 ZZXY=              0.1252
 N-N= 2.025917510383D+03 E-N=-7.705452834012D+03  KE= 1.544806159392D+03
 Calling FoFJK, ICntrl=      2127 FMM=F ISym2X=0 I1Cent= 0 IOpClX= 0 NMat=1 NMatS=1 NMatT=0.
 ***** Axes restored to original set *****
 -------------------------------------------------------------------
 Center     Atomic                   Forces (Hartrees/Bohr)
 Number     Number              X              Y              Z
 -------------------------------------------------------------------
      1        6           0.014509032    0.001142528    0.009238850
      2        6           0.018831448   -0.000264649   -0.009785483
      3        6          -0.001386377   -0.000043337   -0.012910390
      4        6          -0.025312042   -0.000139838   -0.008515489
      5        6           0.031793735    0.001044737   -0.013486424
      6        6          -0.026977545    0.007260551    0.033769820
      7        1          -0.013248399   -0.000167886   -0.005792598
      8        1          -0.002232464   -0.000083192    0.014449238
      9        1           0.009615337   -0.000704790    0.009296540
     10        1          -0.021141884    0.011154829    0.018307089
     11        7          -0.006721776   -0.000250354    0.003234008
     12        8          -0.013297189    0.000140257   -0.037117021
     13        8           0.025496419    0.000090501    0.031605302
     14        6          -0.025239034    0.001781212    0.007717917
     15        6           0.031603938    0.007936071    0.018722373
     16        6          -0.037012490    0.007361181    0.008519345
     17        1           0.009949315    0.010122632    0.003818527
     18        1           0.015817814    0.002251106    0.000216545
     19        1          -0.000967873    0.009275892   -0.019234653
     20        6          -0.038514348    0.004684391   -0.018482014
     21        1           0.000973653    0.008534457    0.015777355
     22        1           0.007052426   -0.019574468    0.004601064
     23        1           0.013370821    0.007353926   -0.002596320
     24       16          -0.132171580   -0.009698503    0.064175269
     25        8           0.066653965    0.017830485    0.003922186
     26        8           0.042611218    0.016963581   -0.051108342
     27        6           0.036551212   -0.022564950   -0.034607252
     28        9          -0.000777187   -0.012912002    0.023326355
     29        9           0.007567294    0.034343939    0.008034514
     30        9          -0.031541317   -0.029940736   -0.019668693
     31        8           0.044143876   -0.052927571   -0.045427616
 -------------------------------------------------------------------
 Cartesian Forces:  Max     0.132171580 RMS     0.025868439

 GradGradGradGradGradGradGradGradGradGradGradGradGradGradGradGradGradGrad
 Berny optimization.
 FormGI is forming the generalized inverse of G from B-inverse, IUseBI=4.
 Internal  Forces:  Max     0.169268161 RMS     0.031655032
 Search for a local minimum.
 Step number   1 out of a maximum of  155
 All quantities printed in internal units (Hartrees-Bohrs-Radians)
 Mixed Optimization -- RFO/linear search
 Second derivative matrix not updated -- first step.
 ITU=  0
     Eigenvalues ---    0.00237   0.00237   0.00237   0.00635   0.00766
     Eigenvalues ---    0.00766   0.00935   0.01228   0.01295   0.01498
     Eigenvalues ---    0.01680   0.01693   0.02070   0.02070   0.02070
     Eigenvalues ---    0.02070   0.02070   0.02070   0.02070   0.02681
     Eigenvalues ---    0.07243   0.07243   0.07243   0.07243   0.08130
     Eigenvalues ---    0.08789   0.09110   0.09110   0.16000   0.16000
     Eigenvalues ---    0.16000   0.16000   0.16000   0.16000   0.16000
     Eigenvalues ---    0.16000   0.16000   0.16000   0.17310   0.21379
     Eigenvalues ---    0.22000   0.22981   0.24000   0.25000   0.25000
     Eigenvalues ---    0.25000   0.25000   0.25000   0.25000   0.25000
     Eigenvalues ---    0.25000   0.25000   0.25000   0.25000   0.25000
     Eigenvalues ---    0.25000   0.27758   0.28519   0.28519   0.28519
     Eigenvalues ---    0.35740   0.37230   0.37230   0.37230   0.37230
     Eigenvalues ---    0.37230   0.37230   0.37230   0.37230   0.37230
     Eigenvalues ---    0.37230   0.39757   0.40989   0.41268   0.41640
     Eigenvalues ---    0.45389   0.45389   0.45389   0.45389   0.53930
     Eigenvalues ---    0.55021   0.55021   0.55021   0.87694   0.87694
     Eigenvalues ---    1.06448   1.06448
 RFO step:  Lambda=-2.73846381D-01 EMin= 2.36824211D-03
 Linear search not attempted -- first point.
 Maximum step size (   0.300) exceeded in Quadratic search.
    -- Step size scaled by   0.439
 Iteration  1 RMS(Cart)=  0.24353523 RMS(Int)=  0.01076705
 Iteration  2 RMS(Cart)=  0.05463214 RMS(Int)=  0.00043599
 Iteration  3 RMS(Cart)=  0.00109432 RMS(Int)=  0.00019378
 Iteration  4 RMS(Cart)=  0.00000058 RMS(Int)=  0.00019378
 Variable       Old X    -DE/DX   Delta X   Delta X   Delta X     New X
                                 (Linear)    (Quad)   (Total)
    R1        2.64826  -0.01933   0.00000  -0.01208  -0.01211   2.63615
    R2        2.64826  -0.00962   0.00000  -0.00566  -0.00566   2.64260
    R3        2.02201   0.01437   0.00000   0.00976   0.00976   2.03177
    R4        2.64826  -0.02411   0.00000  -0.01510  -0.01513   2.63313
    R5        2.77790  -0.00588   0.00000  -0.00409  -0.00409   2.77381
    R6        2.64826  -0.01293   0.00000  -0.00794  -0.00794   2.64033
    R7        2.02201   0.01445   0.00000   0.00982   0.00982   2.03182
    R8        2.64826   0.00960   0.00000   0.00620   0.00624   2.65450
    R9        2.02201   0.01298   0.00000   0.00881   0.00881   2.03082
   R10        2.64826   0.02190   0.00000   0.01377   0.01380   2.66206
   R11        2.91018   0.02487   0.00000   0.01952   0.01952   2.92970
   R12        2.02201  -0.01831   0.00000  -0.01244  -0.01244   2.00957
   R13        2.26162   0.03007   0.00000   0.00986   0.00986   2.27149
   R14        2.26162   0.03161   0.00000   0.01037   0.01037   2.27199
   R15        2.56096   0.03932   0.00000   0.02122   0.02122   2.58218
   R16        2.91018  -0.01518   0.00000  -0.01192  -0.01192   2.89826
   R17        2.91018  -0.00724   0.00000  -0.00568  -0.00568   2.90449
   R18        2.70231  -0.00294   0.00000  -0.00188  -0.00188   2.70042
   R19        2.02201   0.01377   0.00000   0.00935   0.00935   2.03136
   R20        2.02201   0.00241   0.00000   0.00163   0.00163   2.02364
   R21        2.02201   0.02130   0.00000   0.01447   0.01447   2.03647
   R22        2.02201   0.01769   0.00000   0.01202   0.01202   2.03403
   R23        2.02201   0.02125   0.00000   0.01444   0.01444   2.03644
   R24        2.02201   0.01419   0.00000   0.00964   0.00964   2.03165
   R25        2.77714  -0.05969   0.00000  -0.02276  -0.02276   2.75438
   R26        2.77714  -0.05775   0.00000  -0.02203  -0.02203   2.75512
   R27        3.36371   0.03526   0.00000   0.02806   0.02806   3.39178
   R28        3.15584   0.00984   0.00000   0.00643   0.00643   3.16227
   R29        2.55113  -0.02656   0.00000  -0.01415  -0.01415   2.53698
   R30        2.55113  -0.03590   0.00000  -0.01912  -0.01912   2.53201
   R31        2.55113  -0.03715   0.00000  -0.01979  -0.01979   2.53134
    A1        2.09440   0.00270   0.00000   0.00173   0.00168   2.09608
    A2        2.09440  -0.00298   0.00000  -0.00251  -0.00249   2.09191
    A3        2.09440   0.00028   0.00000   0.00078   0.00080   2.09520
    A4        2.09440   0.00570   0.00000   0.00314   0.00308   2.09747
    A5        2.09440  -0.00177   0.00000  -0.00067  -0.00063   2.09376
    A6        2.09440  -0.00393   0.00000  -0.00248  -0.00245   2.09195
    A7        2.09440  -0.00483   0.00000  -0.00561  -0.00563   2.08876
    A8        2.09440   0.00016   0.00000   0.00052   0.00053   2.09493
    A9        2.09440   0.00467   0.00000   0.00509   0.00510   2.09949
   A10        2.09440   0.02264   0.00000   0.02027   0.02031   2.11471
   A11        2.09440  -0.01460   0.00000  -0.01345  -0.01347   2.08092
   A12        2.09440  -0.00804   0.00000  -0.00682  -0.00684   2.08755
   A13        2.09440  -0.03616   0.00000  -0.02916  -0.02911   2.06529
   A14        2.09440  -0.07832   0.00000  -0.06619  -0.06623   2.02817
   A15        2.09440   0.11448   0.00000   0.09535   0.09530   2.18969
   A16        2.09440   0.00994   0.00000   0.00963   0.00964   2.10404
   A17        2.09440  -0.02635   0.00000  -0.02644  -0.02646   2.06794
   A18        2.09440   0.01640   0.00000   0.01681   0.01679   2.11119
   A19        2.09440  -0.01922   0.00000  -0.01610  -0.01610   2.07830
   A20        2.09440  -0.01923   0.00000  -0.01611  -0.01611   2.07829
   A21        2.09440   0.03844   0.00000   0.03221   0.03221   2.12660
   A22        2.09440   0.16344   0.00000   0.13694   0.13693   2.23133
   A23        2.09440  -0.09614   0.00000  -0.08055  -0.08056   2.01384
   A24        2.09440  -0.06730   0.00000  -0.05639  -0.05639   2.03801
   A25        2.09440  -0.02158   0.00000  -0.01808  -0.01815   2.07624
   A26        2.09440   0.07491   0.00000   0.06276   0.06268   2.15707
   A27        2.09440  -0.05333   0.00000  -0.04468  -0.04474   2.04965
   A28        1.91063  -0.00188   0.00000  -0.00240  -0.00242   1.90822
   A29        1.91063   0.02048   0.00000   0.02125   0.02122   1.93185
   A30        1.91063  -0.00081   0.00000  -0.00086  -0.00089   1.90974
   A31        1.91063  -0.00896   0.00000  -0.00900  -0.00901   1.90162
   A32        1.91063  -0.00388   0.00000  -0.00500  -0.00501   1.90562
   A33        1.91063  -0.00494   0.00000  -0.00400  -0.00405   1.90658
   A34        1.91063   0.00229   0.00000   0.00220   0.00219   1.91283
   A35        1.91063   0.00029   0.00000   0.00032   0.00032   1.91095
   A36        1.91063   0.00782   0.00000   0.00801   0.00800   1.91863
   A37        1.91063  -0.00225   0.00000  -0.00247  -0.00247   1.90817
   A38        1.91063  -0.00532   0.00000  -0.00543  -0.00544   1.90519
   A39        1.91063  -0.00284   0.00000  -0.00263  -0.00264   1.90800
   A40        1.91063   0.04412   0.00000   0.04063   0.04007   1.95070
   A41        1.91063  -0.03778   0.00000  -0.03595  -0.03572   1.87492
   A42        1.91063  -0.03943   0.00000  -0.03777  -0.03701   1.87362
   A43        1.91063  -0.04437   0.00000  -0.03625  -0.03670   1.87394
   A44        1.91063   0.00170   0.00000   0.00770   0.00812   1.91875
   A45        1.91063   0.07576   0.00000   0.06164   0.06210   1.97273
   A46        1.91063   0.00404   0.00000   0.00479   0.00465   1.91528
   A47        1.91063  -0.01635   0.00000  -0.01572  -0.01565   1.89498
   A48        1.91063   0.03078   0.00000   0.02640   0.02633   1.93696
   A49        1.91063   0.00195   0.00000   0.00040   0.00040   1.91104
   A50        1.91063  -0.00357   0.00000   0.00105   0.00078   1.91142
   A51        1.91063  -0.01685   0.00000  -0.01693  -0.01679   1.89384
   A52        1.91063   0.16927   0.00000   0.14183   0.14183   2.05246
    D1        0.00000   0.00139   0.00000   0.00209   0.00205   0.00205
    D2        3.14159   0.00023   0.00000   0.00033   0.00028  -3.14131
    D3        3.14159   0.00237   0.00000   0.00357   0.00360  -3.13800
    D4        0.00000   0.00122   0.00000   0.00181   0.00183   0.00183
    D5        0.00000   0.00056   0.00000   0.00086   0.00097   0.00097
    D6        3.14159   0.00530   0.00000   0.00791   0.00800  -3.13359
    D7        3.14159  -0.00042   0.00000  -0.00061  -0.00058   3.14101
    D8       -0.00000   0.00431   0.00000   0.00644   0.00645   0.00645
    D9       -0.00000  -0.00070   0.00000  -0.00106  -0.00112  -0.00112
   D10        3.14159  -0.00117   0.00000  -0.00178  -0.00176   3.13983
   D11        3.14159   0.00046   0.00000   0.00070   0.00065  -3.14094
   D12        0.00000  -0.00001   0.00000  -0.00001   0.00001   0.00001
   D13        0.00000   0.00044   0.00000   0.00067   0.00067   0.00067
   D14        3.14159   0.00067   0.00000   0.00102   0.00102  -3.14058
   D15        3.14159  -0.00071   0.00000  -0.00109  -0.00109   3.14050
   D16       -0.00000  -0.00049   0.00000  -0.00075  -0.00075  -0.00075
   D17        0.00000  -0.00194   0.00000  -0.00292  -0.00287  -0.00287
   D18        3.14159  -0.00033   0.00000  -0.00050  -0.00038   3.14121
   D19        3.14159  -0.00147   0.00000  -0.00221  -0.00223   3.13937
   D20       -0.00000   0.00015   0.00000   0.00021   0.00026   0.00026
   D21        0.00000   0.00389   0.00000   0.00588   0.00577   0.00577
   D22        3.14159  -0.00207   0.00000  -0.00317  -0.00274   3.13886
   D23        3.14159   0.00227   0.00000   0.00346   0.00328  -3.13832
   D24       -0.00000  -0.00368   0.00000  -0.00559  -0.00523  -0.00523
   D25       -0.00000  -0.00320   0.00000  -0.00485  -0.00480  -0.00480
   D26        3.14159  -0.00794   0.00000  -0.01190  -0.01201   3.12958
   D27        3.14159   0.00276   0.00000   0.00420   0.00457  -3.13702
   D28        0.00000  -0.00198   0.00000  -0.00285  -0.00264  -0.00264
   D29        3.14159  -0.01207   0.00000  -0.01946  -0.01926   3.12233
   D30        0.00000  -0.01565   0.00000  -0.02501  -0.02506  -0.02506
   D31       -0.00000  -0.01803   0.00000  -0.02851  -0.02846  -0.02846
   D32        3.14159  -0.02161   0.00000  -0.03406  -0.03426   3.10733
   D33        3.14159  -0.03289   0.00000  -0.04872  -0.04925   3.09235
[...]
 00060803,0.00050961,0.00055088,0.00010242,0.00002775,-0.00008580,-0.00
 018761,0.00003597,-0.00026880,-0.00010402,-0.00025475,0.00004941,-0.00
 023510,-0.00022493,0.00048077,0.00010371,0.00006006,0.00000655,0.00022
 119,0.00009434,0.00013558,-0.00011218,-0.00002770,-0.00004289,0.103573
 06,-0.00705971,-0.11599580,-0.10875236,-0.00373002,0.07981617,0.000204
 23,-0.00013815,0.00020691,0.00022749,0.00017086,-0.00023376,0.00017783
 ,-0.00011516,-0.00004903,-0.00045263,0.00069669,-0.00025855,-0.0011484
 6,0.00049278,0.00048904,0.00034831,-0.00005158,0.00010846,0.00004071,-
 0.00010591,-0.00008857,-0.00004742,-0.00000359,-0.00005080,0.00000390,
 0.00002226,0.00045339,-0.00011195,-0.00013956,-0.00006224,-0.00012991,
 0.00008864,-0.00029704,0.00019627,-0.00007016,0.00016422,0.00003273,-0
 .00006768,0.00016097,0.00051519,-0.00097413,0.00198249,-0.00277434,-0.
 00254351,-0.00247508,0.00073341,0.00103833,0.00052767,0.00035253,-0.00
 022228,-0.00011818,0.00067774,0.00022692,-0.00086285,-0.00009207,-0.00
 043481,0.00006010,0.00025048,-0.00023053,0.00013562,-0.00008004,-0.000
 09925,-0.00005874,-0.00002236,0.00022956,0.00015603,0.00011447,0.00012
 786,-0.00000406,-0.34386247,0.17806135,-0.23710467,-0.01428942,0.02128
 750,-0.02857107,0.34420262,-0.00007842,0.00003280,-0.00004656,0.000649
 35,-0.00007944,-0.00010790,-0.00044102,0.00021044,-0.00014262,0.000853
 56,-0.00041424,-0.00003327,-0.00108617,-0.00025671,0.00055256,0.000109
 95,0.00002035,-0.00025413,-0.00000900,0.00001140,-0.00001285,0.0000889
 4,-0.00008931,-0.00007710,-0.00013100,-0.00029173,-0.00021787,-0.00017
 631,0.00028020,0.00000781,-0.00097759,-0.00038833,0.00070924,0.0003853
 4,0.00006691,-0.00019111,0.00039199,0.00037721,-0.00047394,-0.00118482
 ,-0.00130282,0.00075404,0.01068690,0.00458525,0.00608202,-0.00050924,-
 0.00068310,-0.00100414,-0.00047524,0.00004623,0.00017243,-0.00015413,-
 0.00015120,0.00009704,0.00023705,0.00011866,-0.00017026,0.00060321,-0.
 00028517,-0.00043207,-0.00034970,-0.00016531,-0.00021849,-0.00025669,-
 0.00008415,-0.00025378,-0.00005464,-0.00004192,0.00007701,0.18082696,-
 0.21230929,0.16457038,-0.00546854,0.01363693,0.00740250,-0.19863094,0.
 21702926,0.00060009,0.00002824,-0.00023474,0.00023191,-0.00026274,0.00
 033179,-0.00081050,-0.00029698,0.00027730,-0.00041570,-0.00020124,-0.0
 0085442,0.00043849,0.00006782,-0.00053829,-0.00061814,0.00039548,0.000
 03727,-0.00002806,-0.00002366,-0.00004837,-0.00014619,0.00002425,0.000
 12129,0.00048245,0.00008679,0.00061936,0.00007428,-0.00024196,0.000013
 24,-0.00079152,0.00016956,0.00008038,0.00058360,-0.00019166,0.00005340
 ,0.00026833,-0.00011247,-0.00000224,0.00167004,-0.00007905,0.00139230,
 -0.00539119,-0.00552142,-0.00456372,0.00101454,0.00073529,0.00061177,0
 .00022625,0.00011032,-0.00006885,-0.00031269,0.00026948,-0.00055300,-0
 .00033361,-0.00033070,0.00014474,-0.00014258,-0.00004446,0.00062943,0.
 00012038,0.00004951,0.00003832,0.00026964,0.00026523,0.00027677,-0.000
 06790,0.00002479,-0.00006497,-0.24151553,0.16859082,-0.32676612,0.0092
 9405,0.00257783,0.01988708,0.26209614,-0.19804671,0.31363767,0.0000515
 4,-0.00000544,-0.00013107,-0.00011585,-0.00003348,0.00009574,0.0000011
 5,-0.00004277,0.00000470,-0.00027131,-0.00001009,0.00001358,0.00042409
 ,-0.00008034,0.00005137,-0.00031135,-0.00013019,0.00017971,-0.00001660
 ,0.00004415,0.00008129,-0.00000480,0.00001588,0.00003183,0.00008367,0.
 00007433,0.00005340,0.00011281,0.00012476,0.00008041,0.00039851,-0.000
 05694,0.00005037,-0.00025103,0.00004722,-0.00009279,-0.00011346,0.0000
 0029,-0.00004485,-0.00199633,-0.00048742,-0.00024524,0.00703747,-0.000
 28539,-0.00219460,0.00129705,-0.00058118,0.00023789,-0.00057455,0.0007
 9173,0.00060252,-0.00210152,0.00002531,-0.00141904,-0.00003368,-0.0012
 0254,0.00010336,0.00013195,0.00025042,-0.00019824,-0.00002018,0.000033
 74,0.00003865,-0.00003301,-0.00007196,-0.00002038,-0.00021658,-0.00011
 681,-0.00005918,-0.02508478,0.01342907,0.02441109,-0.01890848,0.005811
 90,0.01883964,-0.00812419,0.00218892,-0.02288819,0.58462110,0.00003751
 ,-0.00001622,0.00000650,-0.00028882,0.00005483,0.00004151,0.00026736,-
 0.00001618,0.00001155,-0.00026984,-0.00000593,0.00022234,0.00020842,-0
 .00014970,-0.00006582,0.00001067,0.00004795,0.00009005,0.00006431,-0.0
 0003700,-0.00006734,0.00001264,0.00004908,-0.00001612,-0.00002123,0.00
 001618,-0.00016823,-0.00000721,-0.00016840,-0.00006289,0.00097216,0.00
 040426,-0.00078041,-0.00040222,-0.00007799,0.00023710,-0.00043409,-0.0
 0037204,0.00049420,-0.00060882,-0.00042311,0.00000447,0.00118254,-0.00
 503504,-0.00321261,0.00051381,0.00055644,0.00003094,0.00012930,0.00007
 747,0.00020868,-0.00058349,0.00008194,-0.00008801,-0.00038914,-0.00052
 278,0.00017662,-0.00020591,0.00058438,-0.00017519,0.00014738,0.0000913
 2,0.00010511,-0.00007129,-0.00010030,0.00000092,-0.00002227,-0.0000115
 8,-0.00005026,0.01071097,-0.04615504,-0.05636650,-0.01026908,0.0053679
 3,0.00686761,0.01060125,-0.00166937,0.02738420,0.00206097,0.58662325,0
 .00027775,0.00016961,-0.00024250,-0.00038363,-0.00012095,0.00024516,0.
 00017826,0.00007066,-0.00003826,-0.00029413,0.00017815,0.00009309,0.00
 063860,0.00003113,-0.00056422,-0.00046857,-0.00021475,0.00044719,0.000
 03612,-0.00006447,0.00005561,0.00001895,-0.00000801,-0.00010149,-0.000
 06277,-0.00002790,-0.00024481,0.00014925,-0.00017106,0.00002162,0.0018
 2968,-0.00009285,-0.00068070,-0.00096968,0.00022216,0.00011357,-0.0006
 3990,-0.00008502,0.00040072,0.00252464,0.00109993,-0.00007196,-0.01032
 658,-0.00025935,-0.00211409,0.00040643,0.00023054,0.00090378,0.0005358
 0,-0.00003653,-0.00040438,-0.00000185,-0.00017922,0.00057819,0.0000002
 2,0.00053271,0.00002090,-0.00046654,-0.00055004,0.00087464,0.00016681,
 0.00016203,0.00011310,0.00037207,0.00015483,0.00020550,0.00014580,0.00
 000060,-0.00004942,0.01942560,-0.06897135,-0.17305709,-0.02201471,0.00
 520440,0.01540103,0.00736806,-0.00230993,0.01004608,0.01021852,-0.0179
 7373,0.55371032,-0.00002045,-0.00002562,0.00007682,0.00009925,0.000032
 09,-0.00006280,-0.00003969,-0.00002326,0.00000586,0.00007245,-0.000022
 85,-0.00005260,-0.00018331,0.00002389,0.00003214,0.00011705,0.00005978
 ,-0.00011019,0.00000581,-0.00001200,-0.00004223,-0.00000772,0.00000296
 ,0.00000748,0.00001213,-0.00000055,0.00006912,-0.00005799,-0.00002557,
 -0.00002722,-0.00033636,0.00007712,0.00000380,0.00021392,-0.00006538,0
 .00004174,0.00010073,-0.00002741,0.00000359,0.00014700,0.00006189,0.00
 014001,-0.00029693,-0.00001876,0.00048307,-0.00024730,0.00017833,-0.00
 015720,0.00007270,-0.00015576,-0.00007741,0.00039199,0.00002188,0.0002
 1741,0.00000170,0.00015701,0.00001212,0.00003133,0.00000195,-0.0000602
 7,-0.00001577,-0.00003151,-0.00002095,-0.00003685,0.00000531,-0.000002
 88,0.00003006,0.00003054,0.00001425,-0.00826678,0.01012573,-0.00328387
 ,0.00626590,-0.00216153,0.00024839,0.00134819,-0.00152207,-0.00310201,
 -0.14601949,0.06297447,-0.10028480,0.20188803,0.00000281,0.00001697,-0
 .00003801,0.00001061,-0.00002141,0.00001760,-0.00001971,0.00003240,-0.
 00001943,0.00003590,0.00001691,-0.00001298,0.00000012,0.00002444,0.000
 01098,-0.00004339,-0.00006401,0.00005964,-0.00001528,0.00000576,0.0000
 3339,0.00000422,-0.00001221,-0.00000693,-0.00001411,-0.00001143,-0.000
 02477,0.00002567,0.00005138,0.00002969,0.00001084,-0.00012249,0.000125
 00,-0.00004332,0.00005458,-0.00005820,0.00002312,0.00008883,-0.0000887
 7,-0.00006327,-0.00001702,-0.00011481,0.00032767,0.00113548,0.00007953
 ,0.00006561,-0.00022100,0.00012297,-0.00005000,0.00006884,-0.00002259,
 -0.00009951,-0.00001476,-0.00006208,0.00012774,0.00005542,-0.00000843,
 0.00005047,-0.00012703,0.00004833,-0.00003040,-0.00000618,-0.00001362,
 0.00002421,0.00001012,-0.00000693,-0.00000268,-0.00001284,0.00000656,0
 .00381015,-0.00288668,0.00102280,-0.00168239,0.00133411,-0.00072937,-0
 .00100481,0.00155644,-0.00011056,0.06131393,-0.12682261,0.08188186,-0.
 10770667,0.17658908,-0.00005473,-0.00005909,0.00011262,0.00019729,0.00
 004412,-0.00008722,-0.00013720,-0.00007908,0.00003592,0.00007296,-0.00
 007556,-0.00013207,-0.00019296,0.00004671,0.00008241,0.00011247,0.0000
 8960,-0.00022883,-0.00001119,0.00001717,-0.00004390,-0.00002428,0.0000
 1043,0.00005031,0.00007634,0.00003752,0.00021700,-0.00006662,0.0000322
 8,-0.00001846,-0.00083196,0.00009967,0.00021700,0.00048223,-0.00013319
 ,-0.00000693,0.00028065,-0.00000664,-0.00011980,-0.00039935,-0.0000046
 1,0.00020077,0.00231223,0.00070999,0.00088174,-0.00022309,0.00010116,-
 0.00031851,-0.00010091,-0.00007515,0.00007955,0.00017440,0.00007332,-0
 .00012137,-0.00005008,-0.00014337,-0.00000292,0.00015006,0.00004296,-0
 .00017201,-0.00005592,-0.00006792,-0.00004965,-0.00008302,-0.00000019,
 -0.00000416,-0.00004019,0.00002170,0.00001079,-0.02814797,0.03344001,-
 0.01484054,0.00723295,-0.00436613,-0.00050655,-0.00264282,-0.00265080,
 -0.01566310,-0.10043079,0.08493097,-0.22169258,0.14269412,-0.13209366,
 0.23343936,-0.00001355,-0.00001321,0.00003848,0.00007125,0.00001180,-0
 .00003853,-0.00002291,0.00001495,-0.00000985,0.00008171,0.00000818,-0.
 00002478,-0.00015372,0.00000528,0.00003592,0.00008481,-0.00000101,-0.0
 0005159,-0.00000228,-0.00000897,-0.00001133,-0.00000052,-0.00000893,-0
 .00000738,-0.00001503,-0.00001631,0.00001057,-0.00002770,0.00000450,-0
 .00000828,-0.00018899,-0.00003486,0.00006684,0.00009827,-0.00000107,-0
 .00000322,0.00007154,0.00004334,-0.00004441,0.00009616,-0.00002556,0.0
 0002906,-0.00026922,0.00004608,0.00037056,-0.00023993,0.00002121,-0.00
 011028,0.00007206,-0.00012655,-0.00010173,0.00032501,-0.00003260,0.000
 24969,0.00002222,0.00022274,-0.00002035,0.00002241,0.00000314,-0.00005
 486,-0.00001463,-0.00002208,-0.00001403,-0.00002997,-0.00000415,-0.000
 01959,0.00003508,0.00001863,0.00001799,0.00021484,-0.00360235,0.001763
 54,0.00394354,0.00079019,-0.00164766,0.00104744,-0.00003518,0.00070185
 ,-0.08826043,-0.06017739,-0.00509580,0.01338837,0.02374160,-0.00312055
 ,0.10688579,-0.00010048,-0.00006639,0.00011632,0.00030102,0.00004478,-
 0.00014130,-0.00012917,0.00005287,-0.00005043,0.00032572,-0.00004018,-
 0.00006861,-0.00049904,-0.00009667,0.00029860,0.00025283,-0.00003431,-
 0.00019325,-0.00002647,0.00001328,0.00000819,0.00000882,-0.00003649,0.
 00000261,-0.00002580,-0.00004515,0.00007829,-0.00007070,0.00013649,0.0
 0001510,-0.00085930,-0.00023640,0.00053613,0.00038676,0.00001856,-0.00
 013790,0.00035224,0.00024955,-0.00034853,-0.00114635,-0.00051006,0.000
 00011,0.00476163,0.00041599,0.00104217,-0.00046007,-0.00030197,-0.0003
 4933,-0.00011357,-0.00011855,-0.00006139,0.00035854,-0.00007049,0.0002
 1513,0.00016642,0.00028313,-0.00004849,0.00025394,0.00026694,-0.000521
 76,-0.00010830,-0.00010384,-0.00005758,-0.00021681,-0.00010763,-0.0001
 5278,0.00000461,0.00000376,0.00006422,-0.01166835,-0.03044828,0.014413
 58,0.00713582,0.00315262,-0.00507491,-0.00253911,0.00598326,-0.0075546
 1,-0.06050297,-0.32480018,-0.02886504,0.01253697,-0.06187437,0.0290411
 9,0.09837076,0.43699675,-0.00008227,-0.00005766,0.00008828,0.00014205,
 0.00005017,-0.00008981,-0.00004894,0.00000031,-0.00001172,0.00012378,-
 0.00004935,-0.00001209,-0.00026608,-0.00005945,0.00020822,0.00016484,0
 .00003150,-0.00013379,-0.00000968,0.00001363,-0.00001409,-0.00000026,-
 0.00000336,0.00002205,0.00000692,-0.00000329,0.00005956,-0.00005106,0.
 00006512,-0.00000289,-0.00053972,-0.00001015,0.00022106,0.00027954,-0.
 00005047,-0.00004177,0.00019583,0.00005411,-0.00014012,-0.00099306,-0.
 00049985,0.00009580,0.00397472,-0.00022403,0.00029022,-0.00008939,-0.0
 0015100,-0.00023854,-0.00015361,0.00001905,0.00008722,-0.00002319,0.00
 005597,-0.00009590,0.00003417,-0.00008863,-0.00000918,0.00015914,0.000
 27404,-0.00037492,-0.00005573,-0.00005640,-0.00002744,-0.00015412,-0.0
 0007953,-0.00008933,-0.00003636,-0.00000491,0.00002299,-0.00694032,-0.
 02020378,0.00939917,0.00354405,0.00081364,-0.00277026,-0.00033908,0.00
 106223,-0.00190427,-0.00628873,-0.03292400,-0.08390298,-0.00152737,0.0
 4635273,0.00356406,0.00269431,-0.00259600,0.06818751,0.00007994,-0.000
 01633,0.00005394,0.00011562,0.00001659,-0.00009270,0.00002649,0.000052
 81,-0.00006337,0.00012379,0.00007934,-0.00005186,-0.00037086,0.0000734
 0,0.00001246,0.00015701,-0.00000490,0.00001477,0.00002537,-0.00005286,
 -0.00004517,0.00000656,-0.00001086,-0.00004863,-0.00004812,-0.00005129
 ,-0.00002348,-0.00006609,-0.00007755,-0.00004062,0.00007576,0.00000050
 ,-0.00017722,-0.00000630,0.00001025,0.00009001,-0.00004085,-0.00000420
 ,0.00009889,0.00104744,0.00027290,0.00008654,-0.00408179,-0.00007588,-
 0.00001244,-0.00104563,0.00041717,-0.00029591,0.00049594,-0.00062367,-
 0.00043558,0.00081366,-0.00094975,0.00028305,0.00001945,0.00080712,0.0
 0003238,-0.00007465,-0.00013052,0.00006331,0.00001372,-0.00002013,-0.0
 0000994,-0.00000071,0.00003780,0.00000592,0.00015833,0.00007170,0.0000
 3590,-0.03378585,-0.01109727,-0.00524606,-0.00302854,0.00367502,0.0096
 6503,0.00875148,-0.00033462,0.00472417,-0.29507427,-0.00949257,0.08053
 155,-0.06951497,0.02118347,-0.01567843,-0.03776422,-0.04165798,0.01138
 295,0.42490493,-0.00003048,-0.00000427,0.00002546,0.00007320,0.0000070
 0,-0.00003825,-0.00003817,0.00000902,-0.00001107,0.00009842,-0.0000181
 3,-0.00002328,-0.00011018,0.00000639,0.00003885,0.00005410,0.00000793,
 -0.00004481,-0.00000919,0.00000740,0.00000599,0.00000278,-0.00000954,0
 .00000386,-0.00000690,-0.00001325,0.00002033,-0.00001630,0.00003423,0.
 00000473,-0.00025438,-0.00006904,0.00016405,0.00011329,0.00000461,-0.0
 0004396,0.00010437,0.00007174,-0.00010525,0.00012516,0.00003825,0.0000
 2817,-0.00013642,0.00083939,0.00115080,-0.00078975,-0.00008187,-0.0003
 1287,0.00010611,-0.00021834,-0.00019699,-0.00020630,-0.00111422,-0.000
 43579,0.00009888,0.00040471,0.00001543,0.00003945,-0.00004735,-0.00002
 440,-0.00002708,-0.00002505,-0.00002463,-0.00001064,0.00000067,-0.0000
 2429,0.00002246,0.00000658,0.00002055,0.00731761,0.00234624,-0.0003286
 8,0.00214063,-0.00035194,-0.00256444,-0.00170142,0.00100861,-0.0017651
 0,-0.00743863,-0.07389544,0.00041994,0.02726982,0.00802720,0.00077064,
 -0.05937564,-0.02047935,0.01674117,0.03089640,0.08219237,-0.00009529,-
 0.00001228,0.00003113,0.00003720,0.00000577,-0.00000404,-0.00006976,-0
 .00003816,0.00004566,0.00004715,-0.00008306,-0.00001162,0.00004234,-0.
 00001292,0.00004854,0.00003044,0.00005935,-0.00013452,-0.00002116,0.00
 003868,0.00000535,-0.00000741,0.00000368,0.00004433,0.00002831,0.00002
 295,0.00006609,-0.00000539,0.00005623,0.00000669,-0.00049018,0.0000088
 8,0.00025250,0.00024609,-0.00005537,-0.00006848,0.00018032,0.00003332,
 -0.00014625,-0.00051909,-0.00018630,0.00002590,0.00231898,0.00049354,0
 .00096151,-0.00054391,0.00007339,-0.00030341,-0.00010408,-0.00004988,0
 .00014938,-0.00062727,-0.00094961,-0.00101582,0.00002517,-0.00027913,0
 .00001508,0.00009317,0.00007733,-0.00011098,-0.00002659,-0.00002559,-0
 .00002793,-0.00004486,-0.00002143,-0.00002206,-0.00006506,-0.00001273,
 0.00000361,0.03329971,0.00914531,0.00247072,0.00752678,-0.00390660,-0.
 00991314,-0.00344861,-0.00071511,-0.00250315,0.08255744,0.00099853,-0.
 10890601,-0.03499664,0.00455245,0.01511448,0.00530367,0.00808039,0.012
 36232,-0.08563319,-0.01195620,0.09263275,0.00116459,0.00019641,0.00007
 900,0.00110526,-0.00053795,0.00000828,-0.00126606,0.00034384,-0.000591
 86,0.00313142,0.00116769,-0.00159711,-0.00565461,0.00361115,0.00543182
 ,0.00063145,0.00134398,0.00146173,0.00015744,-0.00013618,-0.00021488,0
 .00014731,-0.00004926,-0.00014888,-0.00021472,-0.00032949,0.00022467,-
 0.00046983,-0.00061390,0.00007090,-0.00084583,-0.00021437,0.00017823,0
 .00053996,-0.00003834,0.00008161,0.00029537,0.00020336,-0.00011733,-0.
 01294038,-0.00984028,-0.01589326,-0.14376061,-0.03137125,-0.05993603,-
 0.03920345,-0.02398299,-0.02284083,-0.00632503,0.00090789,0.00591853,0
 .00250310,0.00066057,-0.00129845,0.00229899,0.00020911,-0.00107616,0.0
 0446614,-0.00204306,-0.00110110,-0.00154872,-0.00086605,-0.00122168,-0
 .00098715,-0.00032707,-0.00083520,0.00030615,0.00028082,0.00056399,-0.
 08154807,-0.03980167,-0.01538916,-0.01828742,-0.03863223,0.00824317,0.
 01191027,0.01485316,-0.00623238,-0.00662748,-0.00665037,0.01618482,0.0
 0085702,0.00001739,-0.00149363,0.00054259,-0.00509162,-0.00510335,0.00
 808738,0.00168880,-0.00503829,0.28153493,-0.00100997,-0.00115552,0.001
 29800,0.00096153,0.00101391,-0.00137690,0.00088507,0.00017875,-0.00048
 333,0.00053298,-0.00005702,0.00093967,-0.00276733,-0.00515488,0.003867
 45,0.00350867,-0.00092378,-0.00243414,0.00004801,-0.00009671,-0.000182
 11,0.00009414,-0.00015830,-0.00019052,-0.00038069,-0.00039008,-0.00020
 703,-0.00019371,0.00057272,-0.00026406,-0.00212772,-0.00043067,0.00097
 669,0.00095928,0.00000589,-0.00015105,0.00080257,0.00059719,-0.0007432
 2,-0.02605604,-0.00884293,-0.02067284,-0.02729579,-0.05601321,-0.01340
 708,-0.01500690,-0.00472345,-0.00943652,-0.00423069,0.00219783,0.00189
 611,-0.00120959,0.00054165,0.00075052,0.00175463,0.00014652,-0.0014662
 2,0.00189995,0.00961217,-0.00639390,0.00037048,-0.00039540,0.00010352,
 -0.00274179,-0.00199074,-0.00226564,0.00010491,0.00004038,0.00059812,-
 0.04263032,-0.21125783,0.02372225,-0.00760429,-0.00880260,0.00518525,-
 0.00397144,-0.02675187,0.01400369,-0.01516646,-0.01367610,0.02957165,-
 0.00176079,0.00314607,-0.00975407,0.00018347,-0.00824763,-0.00847183,0
 .00700592,0.00131545,-0.00534544,0.13504189,0.32970018,-0.00126178,-0.
 00100160,0.00111242,0.00035361,0.00104331,-0.00122276,0.00101030,-0.00
 029741,-0.00025106,0.00004861,-0.00088652,0.00086805,-0.00435803,0.001
 88119,-0.00284574,0.00158807,-0.00067749,-0.00256450,0.00000675,-0.000
 02670,-0.00009092,0.00005206,-0.00006294,-0.00001920,-0.00000374,-0.00
 011429,0.00018022,0.00011903,-0.00008586,0.00000090,-0.00150393,0.0000
 1309,0.00050111,0.00072694,-0.00017048,-0.00000588,0.00049648,0.000155
 87,-0.00032249,-0.03828559,-0.02001796,-0.02533422,-0.05837323,-0.0151
 9588,-0.10187726,0.00739314,0.00405913,0.00718288,0.00229067,0.0000128
 7,-0.00000360,-0.00078232,0.00022256,-0.00010741,-0.00054990,-0.000330
 74,0.00169574,0.00602528,-0.00561090,-0.00079232,-0.00200621,-0.000817
 85,-0.00175813,-0.00019226,0.00003112,-0.00027917,-0.00022762,0.000131
 39,0.00028108,-0.00862211,0.02978193,-0.08147750,-0.00437879,0.0017524
 7,0.01682955,0.00275605,0.02587140,0.00556705,-0.00363839,-0.00986021,
 0.00883998,-0.00024148,-0.00093241,0.00000256,-0.00089825,-0.00769012,
 -0.00474934,0.00077375,-0.00150996,-0.00106865,0.10168287,0.00033300,0
 .18170861\\0.00000493,0.00000350,-0.00000405,-0.00000089,-0.00000181,0
 .00000161,-0.00000235,0.00000320,0.00000008,0.00000106,0.00000156,-0.0
 0000474,0.00000258,0.00000114,0.00000302,-0.00000383,0.00000059,0.0000
 0145,0.00000005,0.00000075,-0.00000262,-0.00000121,0.00000127,-0.00000
 024,-0.00000165,-0.00000028,0.00000086,0.00000073,-0.00000029,-0.00000
 295,0.00000534,0.00000187,-0.00000619,-0.00000464,0.00000058,0.0000013
 0,-0.00000634,0.00000300,0.00000031,0.00000056,0.00000185,0.00000546,-
 0.00000155,-0.00000842,-0.00000407,-0.00000056,0.00000289,-0.00000125,
 -0.00000068,-0.00000413,0.00000004,0.00000082,-0.00000264,0.00000241,0
 .00000123,-0.00000158,-0.00000202,-0.00000401,0.00000071,0.00000312,0.
 00000090,-0.00000105,-0.00000116,-0.00000036,-0.00000116,0.00000238,-0
 .00000030,0.00000175,0.00000155,-0.00000247,-0.00001138,0.00000438,0.0
 0000013,0.00000276,-0.00000041,0.00000221,0.00000541,0.00000071,0.0000
 0454,0.00000268,0.00000051,0.00000166,-0.00000322,-0.00000008,0.000003
 59,0.00000392,-0.00000031,-0.00000546,-0.00000713,0.00000079,0.0000059
 8,0.00000364,0.00000010\\\@
 The archive entry for this job was punched.


 ALTHOUGH J.J. COULD DIAGNOSE THE FAULTS OF AN
 APPARATUS WITH UNCANNY ACCURACY, IT WAS JUST AS
 WELL NOT TO LET HIM HANDLE IT.
   -- GEORGE THOMPSON, ABOUT HIS FATHER
 Job cpu time:       0 days  9 hours 40 minutes 23.1 seconds.
 Elapsed time:       0 days  0 hours 36 minutes 27.5 seconds.
 File lengths (MBytes):  RWF=    930 Int=      0 D2E=      0 Chk=     27 Scr=      1
 Normal termination of Gaussian 16 at Fri Dec 31 12:23:06 2021.
