 Entering Gaussian System, Link 0=/software/g16/g16
 Input=E-isomer.com
 Output=E-isomer.log
 Initial command:
 /software/g16/l1.exe "/scratch/Gau-1053549.inp" -scrdir="/scratch/"
 Default CPUs for threads: 0-15
 Default is to use a total of  16 processors:
                               16 via shared-memory
                                1 via Linda
 Entering Link 1 = /software/g16/l1.exe PID=   1053550.
  
 Copyright (c) 1988-2019, Gaussian, Inc.  All Rights Reserved.
  
 This is part of the Gaussian(R) 16 program.  It is based on
 the Gaussian(R) 09 system (copyright 2009, Gaussian, Inc.),
 the Gaussian(R) 03 system (copyright 2003, Gaussian, Inc.),
 the Gaussian(R) 98 system (copyright 1998, Gaussian, Inc.),
 the Gaussian(R) 94 system (copyright 1995, Gaussian, Inc.),
 the Gaussian 92(TM) system (copyright 1992, Gaussian, Inc.),
 the Gaussian 90(TM) system (copyright 1990, Gaussian, Inc.),
 the Gaussian 88(TM) system (copyright 1988, Gaussian, Inc.),
 the Gaussian 86(TM) system (copyright 1986, Carnegie Mellon
 University), and the Gaussian 82(TM) system (copyright 1983,
 Carnegie Mellon University). Gaussian is a federally registered
 trademark of Gaussian, Inc.
  
 This software contains proprietary and confidential information,
 including trade secrets, belonging to Gaussian, Inc.
  
 This software is provided under written license and may be
 used, copied, transmitted, or stored only in accord with that
 written license.
  
 The following legend is applicable only to US Government
 contracts under FAR:
  
                    RESTRICTED RIGHTS LEGEND
  
 Use, reproduction and disclosure by the US Government is
 subject to restrictions as set forth in subparagraphs (a)
 and (c) of the Commercial Computer Software - Restricted
 Rights clause in FAR 52.227-19.
  
 Gaussian, Inc.
 340 Quinnipiac St., Bldg. 40, Wallingford CT 06492
  
  
 ---------------------------------------------------------------
 Warning -- This program may not be used in any manner that
 competes with the business of Gaussian, Inc. or will provide
 assistance to any competitor of Gaussian, Inc.  The licensee
 of this program is prohibited from giving any competitor of
 Gaussian, Inc. access to this program.  By using this program,
 the user acknowledges that Gaussian, Inc. is engaged in the
 business of creating and licensing software in the field of
 computational chemistry and represents and warrants to the
 licensee that it is not a competitor of Gaussian, Inc. and that
 it will not use this program in any manner prohibited above.
 ---------------------------------------------------------------
  

 Cite this work as:
 Gaussian 16, Revision C.01,
 M. J. Frisch, G. W. Trucks, H. B. Schlegel, G. E. Scuseria, 
 M. A. Robb, J. R. Cheeseman, G. Scalmani, V. Barone, 
 G. A. Petersson, H. Nakatsuji, X. Li, M. Caricato, A. V. Marenich, 
 J. Bloino, B. G. Janesko, R. Gomperts, B. Mennucci, H. P. Hratchian, 
 J. V. Ortiz, A. F. Izmaylov, J. L. Sonnenberg, D. Williams-Young, 
 F. Ding, F. Lipparini, F. Egidi, J. Goings, B. Peng, A. Petrone, 
 T. Henderson, D. Ranasinghe, V. G. Zakrzewski, J. Gao, N. Rega, 
 G. Zheng, W. Liang, M. Hada, M. Ehara, K. Toyota, R. Fukuda, 
 J. Hasegawa, M. Ishida, T. Nakajima, Y. Honda, O. Kitao, H. Nakai, 
 T. Vreven, K. Throssell, J. A. Montgomery, Jr., J. E. Peralta, 
 F. Ogliaro, M. J. Bearpark, J. J. Heyd, E. N. Brothers, K. N. Kudin, 
 V. N. Staroverov, T. A. Keith, R. Kobayashi, J. Normand, 
 K. Raghavachari, A. P. Rendell, J. C. Burant, S. S. Iyengar, 
 J. Tomasi, M. Cossi, J. M. Millam, M. Klene, C. Adamo, R. Cammi, 
 J. W. Ochterski, R. L. Martin, K. Morokuma, O. Farkas, 
 J. B. Foresman, and D. J. Fox, Gaussian, Inc., Wallingford CT, 2019.
 
 ******************************************
 Gaussian 16:  ES64L-G16RevC.01  3-Jul-2019
                31-Dec-2021 
 ******************************************
 SetSPE:  set environment variable "MP_BIND" = "yes"
 SetSPE:  set environment variable "MP_BLIST" = "0,1,2,3,4,5,6,7,8,9,10,11,12,13,14,15"
 ------------------------------------------------------
 #N M062X/gen OPT FREQ=NoRaman Integral(Grid=UltraFine)
 ------------------------------------------------------
 1/18=20,19=15,26=4,38=1/1,3;
 2/9=110,12=2,17=6,18=5,40=1/2;
 3/5=7,11=2,25=1,30=1,71=1,74=-55,75=-5/1,2,3;
 4//1;
 5/5=2,38=5/2;
 6/7=2,8=2,9=2,10=2,28=1/1;
 7//1,2,3,16;
 1/18=20,19=15,26=4/3(2);
 2/9=110/2;
 99//99;
 2/9=110/2;
 3/5=7,6=1,11=2,25=1,30=1,71=1,74=-55,75=-5,82=7/1,2,3;
 4/5=5,16=3,69=1/1;
 5/5=2,38=5/2;
 7//1,2,3,16;
 1/18=20,19=15,26=4/3(-5);
 2/9=110/2;
 6/7=2,8=2,9=2,10=2,19=2,28=1/1;
 99/9=1/99;
 ----------------------------------------------------------------------
 E-isomer - CH: def2svp - O25 O26 O31 SF: def2tzvp - N: aug-cc-pvtz - O
 12 O13: aug-cc-pvtz
 ----------------------------------------------------------------------
 Symbolic Z-matrix:
 Charge =  0 Multiplicity = 1
 C
 C                    1    B1
 C                    2    B2       1    A1
 C                    3    B3       2    A2       1    D1       0
 C                    4    B4       3    A3       2    D2       0
 C                    1    B5       2    A4       3    D3       0
 H                    1    B6       2    A5       3    D4       0
 H                    3    B7       2    A6       1    D5       0
 H                    4    B8       3    A7       2    D6       0
 H                    6    B9       1    A8       2    D7       0
 N                    2    B10      1    A9       6    D8       0
 O                    11   B11      2    A10      1    D9       0
 O                    11   B12      2    A11      1    D10      0
 C                    5    B13      4    A12      3    D11      0
 C                    14   B14      5    A13      4    D12      0
 C                    15   B15      14   A14      5    D13      0
 H                    16   B16      15   A15      14   D14      0
 H                    16   B17      15   A16      14   D15      0
 H                    16   B18      15   A17      14   D16      0
 C                    14   B19      5    A18      4    D17      0
 H                    20   B20      14   A19      5    D18      0
 H                    20   B21      14   A20      5    D19      0
 H                    20   B22      14   A21      5    D20      0
 S                    15   B23      14   A22      5    D21      0
 O                    24   B24      15   A23      14   D22      0
 O                    24   B25      15   A24      14   D23      0
 C                    24   B26      15   A25      14   D24      0
 F                    27   B27      24   A26      15   D25      0
 F                    27   B28      24   A27      15   D26      0
 F                    27   B29      24   A28      15   D27      0
 O                    24   B30      15   A29      14   D28      0
       Variables:
  B1                    1.4014                   
  B2                    1.4014                   
  B3                    1.4014                   
  B4                    1.4014                   
  B5                    1.4014                   
  B6                    1.07                     
  B7                    1.07                     
  B8                    1.07                     
  B9                    1.07                     
  B10                   1.47                     
  B11                   1.1968                   
  B12                   1.1968                   
  B13                   1.54                     
  B14                   1.3552                   
  B15                   1.54                     
  B16                   1.07                     
  B17                   1.07                     
  B18                   1.07                     
  B19                   1.54                     
  B20                   1.07                     
  B21                   1.07                     
  B22                   1.07                     
  B23                   2.53493                  
  B24                   1.4696                   
  B25                   1.4696                   
  B26                   1.78                     
  B27                   1.35                     
  B28                   1.35                     
  B29                   1.35                     
  B30                   1.67                     
  A1                  120.                       
  A2                  120.                       
  A3                  120.                       
  A4                  120.                       
  A5                  120.                       
  A6                  120.                       
  A7                  120.                       
  A8                  120.                       
  A9                  120.                       
  A10                 120.                       
  A11                 120.                       
  A12                 120.                       
  A13                 120.                       
  A14                 120.                       
  A15                 109.47122                  
  A16                 109.47122                  
  A17                 109.47122                  
  A18                 120.                       
  A19                 109.47122                  
  A20                 109.47122                  
  A21                 109.47122                  
  A22                 113.07018                  
  A23                 141.60215                  
  A24                  91.8085                   
  A25                  91.8085                   
  A26                 109.47122                  
  A27                 109.47122                  
  A28                 109.47122                  
  A29                  32.13093                  
  D1                    0.                       
  D2                    0.                       
  D3                    0.                       
  D4                 -180.                       
  D5                 -180.                       
  D6                  180.                       
  D7                  180.                       
  D8                  180.                       
  D9                    0.                       
  D10                 180.                       
  D11                -180.                       
  D12                -180.                       
  D13                   0.                       
  D14                 -30.                       
  D15                  90.                       
  D16                -150.                       
  D17                   0.                       
  D18                 -30.                       
  D19                  90.                       
  D20                -150.                       
  D21                 137.53727                  
  D22                 109.72798                  
  D23                 -15.49601                  
  D24                -125.04803                  
  D25                 -87.44069                  
  D26                 152.55931                  
  D27                  32.55931                  
  D28                 109.72798                  
 
     9 tetrahedral angles replaced.

 GradGradGradGradGradGradGradGradGradGradGradGradGradGradGradGradGradGrad
 Berny optimization.
 Initialization pass.
                           ----------------------------
                           !    Initial Parameters    !
                           ! (Angstroms and Degrees)  !
 --------------------------                            --------------------------
 ! Name  Definition              Value          Derivative Info.                !
 --------------------------------------------------------------------------------
 ! R1    R(1,2)                  1.4014         estimate D2E/DX2                !
 ! R2    R(1,6)                  1.4014         estimate D2E/DX2                !
 ! R3    R(1,7)                  1.07           estimate D2E/DX2                !
 ! R4    R(2,3)                  1.4014         estimate D2E/DX2                !
 ! R5    R(2,11)                 1.47           estimate D2E/DX2                !
 ! R6    R(3,4)                  1.4014         estimate D2E/DX2                !
 ! R7    R(3,8)                  1.07           estimate D2E/DX2                !
 ! R8    R(4,5)                  1.4014         estimate D2E/DX2                !
 ! R9    R(4,9)                  1.07           estimate D2E/DX2                !
 ! R10   R(5,6)                  1.4014         estimate D2E/DX2                !
 ! R11   R(5,14)                 1.54           estimate D2E/DX2                !
 ! R12   R(6,10)                 1.07           estimate D2E/DX2                !
 ! R13   R(11,12)                1.1968         estimate D2E/DX2                !
 ! R14   R(11,13)                1.1968         estimate D2E/DX2                !
 ! R15   R(14,15)                1.3552         estimate D2E/DX2                !
 ! R16   R(14,20)                1.54           estimate D2E/DX2                !
 ! R17   R(15,16)                1.54           estimate D2E/DX2                !
 ! R18   R(15,31)                1.43           estimate D2E/DX2                !
 ! R19   R(16,17)                1.07           estimate D2E/DX2                !
 ! R20   R(16,18)                1.07           estimate D2E/DX2                !
 ! R21   R(16,19)                1.07           estimate D2E/DX2                !
 ! R22   R(20,21)                1.07           estimate D2E/DX2                !
 ! R23   R(20,22)                1.07           estimate D2E/DX2                !
 ! R24   R(20,23)                1.07           estimate D2E/DX2                !
 ! R25   R(24,25)                1.4696         estimate D2E/DX2                !
 ! R26   R(24,26)                1.4696         estimate D2E/DX2                !
 ! R27   R(24,27)                1.78           estimate D2E/DX2                !
 ! R28   R(24,31)                1.67           estimate D2E/DX2                !
 ! R29   R(27,28)                1.35           estimate D2E/DX2                !
 ! R30   R(27,29)                1.35           estimate D2E/DX2                !
 ! R31   R(27,30)                1.35           estimate D2E/DX2                !
 ! A1    A(2,1,6)              120.0            estimate D2E/DX2                !
 ! A2    A(2,1,7)              120.0            estimate D2E/DX2                !
 ! A3    A(6,1,7)              120.0            estimate D2E/DX2                !
 ! A4    A(1,2,3)              120.0            estimate D2E/DX2                !
 ! A5    A(1,2,11)             120.0            estimate D2E/DX2                !
 ! A6    A(3,2,11)             120.0            estimate D2E/DX2                !
 ! A7    A(2,3,4)              120.0            estimate D2E/DX2                !
 ! A8    A(2,3,8)              120.0            estimate D2E/DX2                !
 ! A9    A(4,3,8)              120.0            estimate D2E/DX2                !
 ! A10   A(3,4,5)              120.0            estimate D2E/DX2                !
 ! A11   A(3,4,9)              120.0            estimate D2E/DX2                !
 ! A12   A(5,4,9)              120.0            estimate D2E/DX2                !
 ! A13   A(4,5,6)              120.0            estimate D2E/DX2                !
 ! A14   A(4,5,14)             120.0            estimate D2E/DX2                !
 ! A15   A(6,5,14)             120.0            estimate D2E/DX2                !
 ! A16   A(1,6,5)              120.0            estimate D2E/DX2                !
 ! A17   A(1,6,10)             120.0            estimate D2E/DX2                !
 ! A18   A(5,6,10)             120.0            estimate D2E/DX2                !
 ! A19   A(2,11,12)            120.0            estimate D2E/DX2                !
 ! A20   A(2,11,13)            120.0            estimate D2E/DX2                !
 ! A21   A(12,11,13)           120.0            estimate D2E/DX2                !
 ! A22   A(5,14,15)            120.0            estimate D2E/DX2                !
 ! A23   A(5,14,20)            120.0            estimate D2E/DX2                !
 ! A24   A(15,14,20)           120.0            estimate D2E/DX2                !
 ! A25   A(14,15,16)           120.0            estimate D2E/DX2                !
 ! A26   A(14,15,31)           120.0            estimate D2E/DX2                !
 ! A27   A(16,15,31)           120.0            estimate D2E/DX2                !
 ! A28   A(15,16,17)           109.4712         estimate D2E/DX2                !
 ! A29   A(15,16,18)           109.4712         estimate D2E/DX2                !
 ! A30   A(15,16,19)           109.4712         estimate D2E/DX2                !
 ! A31   A(17,16,18)           109.4712         estimate D2E/DX2                !
 ! A32   A(17,16,19)           109.4712         estimate D2E/DX2                !
 ! A33   A(18,16,19)           109.4712         estimate D2E/DX2                !
 ! A34   A(14,20,21)           109.4712         estimate D2E/DX2                !
 ! A35   A(14,20,22)           109.4712         estimate D2E/DX2                !
 ! A36   A(14,20,23)           109.4712         estimate D2E/DX2                !
 ! A37   A(21,20,22)           109.4712         estimate D2E/DX2                !
 ! A38   A(21,20,23)           109.4712         estimate D2E/DX2                !
 ! A39   A(22,20,23)           109.4712         estimate D2E/DX2                !
 ! A40   A(25,24,26)           109.4712         estimate D2E/DX2                !
 ! A41   A(25,24,27)           109.4712         estimate D2E/DX2                !
 ! A42   A(25,24,31)           109.4712         estimate D2E/DX2                !
 ! A43   A(26,24,27)           109.4712         estimate D2E/DX2                !
 ! A44   A(26,24,31)           109.4712         estimate D2E/DX2                !
 ! A45   A(27,24,31)           109.4712         estimate D2E/DX2                !
 ! A46   A(24,27,28)           109.4712         estimate D2E/DX2                !
 ! A47   A(24,27,29)           109.4712         estimate D2E/DX2                !
 ! A48   A(24,27,30)           109.4712         estimate D2E/DX2                !
 ! A49   A(28,27,29)           109.4712         estimate D2E/DX2                !
 ! A50   A(28,27,30)           109.4712         estimate D2E/DX2                !
 ! A51   A(29,27,30)           109.4712         estimate D2E/DX2                !
 ! A52   A(15,31,24)           109.4712         estimate D2E/DX2                !
 ! D1    D(6,1,2,3)              0.0            estimate D2E/DX2                !
 ! D2    D(6,1,2,11)           180.0            estimate D2E/DX2                !
 ! D3    D(7,1,2,3)            180.0            estimate D2E/DX2                !
 ! D4    D(7,1,2,11)             0.0            estimate D2E/DX2                !
 ! D5    D(2,1,6,5)              0.0            estimate D2E/DX2                !
 ! D6    D(2,1,6,10)           180.0            estimate D2E/DX2                !
 ! D7    D(7,1,6,5)            180.0            estimate D2E/DX2                !
 ! D8    D(7,1,6,10)             0.0            estimate D2E/DX2                !
 ! D9    D(1,2,3,4)              0.0            estimate D2E/DX2                !
 ! D10   D(1,2,3,8)            180.0            estimate D2E/DX2                !
 ! D11   D(11,2,3,4)           180.0            estimate D2E/DX2                !
 ! D12   D(11,2,3,8)             0.0            estimate D2E/DX2                !
 ! D13   D(1,2,11,12)            0.0            estimate D2E/DX2                !
 ! D14   D(1,2,11,13)          180.0            estimate D2E/DX2                !
 ! D15   D(3,2,11,12)          180.0            estimate D2E/DX2                !
 ! D16   D(3,2,11,13)            0.0            estimate D2E/DX2                !
 ! D17   D(2,3,4,5)              0.0            estimate D2E/DX2                !
 ! D18   D(2,3,4,9)            180.0            estimate D2E/DX2                !
 ! D19   D(8,3,4,5)            180.0            estimate D2E/DX2                !
 ! D20   D(8,3,4,9)              0.0            estimate D2E/DX2                !
 ! D21   D(3,4,5,6)              0.0            estimate D2E/DX2                !
 ! D22   D(3,4,5,14)           180.0            estimate D2E/DX2                !
 ! D23   D(9,4,5,6)            180.0            estimate D2E/DX2                !
 ! D24   D(9,4,5,14)             0.0            estimate D2E/DX2                !
 ! D25   D(4,5,6,1)              0.0            estimate D2E/DX2                !
 ! D26   D(4,5,6,10)           180.0            estimate D2E/DX2                !
 ! D27   D(14,5,6,1)           180.0            estimate D2E/DX2                !
 ! D28   D(14,5,6,10)            0.0            estimate D2E/DX2                !
 ! D29   D(4,5,14,15)          180.0            estimate D2E/DX2                !
 ! D30   D(4,5,14,20)            0.0            estimate D2E/DX2                !
 ! D31   D(6,5,14,15)            0.0            estimate D2E/DX2                !
 ! D32   D(6,5,14,20)          180.0            estimate D2E/DX2                !
 ! D33   D(5,14,15,16)           0.0            estimate D2E/DX2                !
 ! D34   D(5,14,15,31)         180.0            estimate D2E/DX2                !
 ! D35   D(20,14,15,16)        180.0            estimate D2E/DX2                !
 ! D36   D(20,14,15,31)          0.0            estimate D2E/DX2                !
 ! D37   D(5,14,20,21)         -30.0            estimate D2E/DX2                !
 ! D38   D(5,14,20,22)          90.0            estimate D2E/DX2                !
 ! D39   D(5,14,20,23)        -150.0            estimate D2E/DX2                !
 ! D40   D(15,14,20,21)        150.0            estimate D2E/DX2                !
 ! D41   D(15,14,20,22)        -90.0            estimate D2E/DX2                !
 ! D42   D(15,14,20,23)         30.0            estimate D2E/DX2                !
 ! D43   D(14,15,16,17)        -30.0            estimate D2E/DX2                !
 ! D44   D(14,15,16,18)         90.0            estimate D2E/DX2                !
 ! D45   D(14,15,16,19)       -150.0            estimate D2E/DX2                !
 ! D46   D(31,15,16,17)        150.0            estimate D2E/DX2                !
 ! D47   D(31,15,16,18)        -90.0            estimate D2E/DX2                !
 ! D48   D(31,15,16,19)         30.0            estimate D2E/DX2                !
 ! D49   D(14,15,31,24)        -90.0            estimate D2E/DX2                !
 ! D50   D(16,15,31,24)         90.0            estimate D2E/DX2                !
 ! D51   D(25,24,27,28)         60.0            estimate D2E/DX2                !
 ! D52   D(25,24,27,29)        -60.0            estimate D2E/DX2                !
 ! D53   D(25,24,27,30)        180.0            estimate D2E/DX2                !
 ! D54   D(26,24,27,28)        180.0            estimate D2E/DX2                !
 ! D55   D(26,24,27,29)         60.0            estimate D2E/DX2                !
 ! D56   D(26,24,27,30)        -60.0            estimate D2E/DX2                !
 ! D57   D(31,24,27,28)        -60.0            estimate D2E/DX2                !
 ! D58   D(31,24,27,29)       -180.0            estimate D2E/DX2                !
 ! D59   D(31,24,27,30)         60.0            estimate D2E/DX2                !
 ! D60   D(25,24,31,15)        180.0            estimate D2E/DX2                !
 ! D61   D(26,24,31,15)         60.0            estimate D2E/DX2                !
 ! D62   D(27,24,31,15)        -60.0            estimate D2E/DX2                !
 --------------------------------------------------------------------------------
 Trust Radius=3.00D-01 FncErr=1.00D-07 GrdErr=1.00D-06 EigMax=2.50D+02 EigMin=1.00D-04
 Number of steps in this run=    155 maximum allowed number of steps=    186.
 GradGradGradGradGradGradGradGradGradGradGradGradGradGradGradGradGradGrad

                          Input orientation:                          
 ---------------------------------------------------------------------
 Center     Atomic      Atomic             Coordinates (Angstroms)
 Number     Number       Type             X           Y           Z
 ---------------------------------------------------------------------
      1          6           0        0.000000    0.000000    0.000000
      2          6           0        0.000000    0.000000    1.401400
      3          6           0        1.213648    0.000000    2.102100
      4          6           0        2.427296    0.000000    1.401400
      5          6           0        2.427296    0.000000    0.000000
      6          6           0        1.213648    0.000000   -0.700700
      7          1           0       -0.926647    0.000000   -0.535000
      8          1           0        1.213648    0.000000    3.172100
      9          1           0        3.353943    0.000000    1.936400
     10          1           0        1.213648    0.000000   -1.770700
     11          7           0       -1.273057    0.000000    2.136400
     12          8           0       -2.309517    0.000000    1.538000
     13          8           0       -1.273057    0.000000    3.333200
     14          6           0        3.760975    0.000000   -0.770000
     15          6           0        3.760975    0.000000   -2.125200
     16          6           0        2.427296    0.000000   -2.895200
     17          1           0        1.681588   -0.504403   -2.316929
     18          1           0        2.118414    1.008806   -3.073533
     19          1           0        2.555239   -0.504403   -3.830138
     20          6           0        5.094654    0.000000    0.000000
     21          1           0        4.966711    0.504403    0.934938
     22          1           0        5.403537   -1.008806    0.178333
     23          1           0        5.840362    0.504403   -0.578271
     24         16           0        5.481478    1.574492   -3.118533
     25          8           0        6.754189    1.574493   -3.853333
     26          8           0        5.657202    2.267269   -1.834436
     27          6           0        4.240953    2.413592   -4.080517
     28          9           0        4.079530    1.777195   -5.260111
     29          9           0        4.630664    3.686384   -4.305517
     30          9           0        3.071819    2.413591   -3.405517
     31          8           0        4.999391    0.000001   -2.840200
 ---------------------------------------------------------------------
                    Distance matrix (angstroms):
                    1          2          3          4          5
     1  C    0.000000
     2  C    1.401400   0.000000
     3  C    2.427296   1.401400   0.000000
     4  C    2.802800   2.427296   1.401400   0.000000
     5  C    2.427296   2.802800   2.427296   1.401400   0.000000
     6  C    1.401400   2.427296   2.802800   2.427296   1.401400
     7  H    1.070000   2.146700   3.396345   3.872800   3.396345
     8  H    3.396345   2.146700   1.070000   2.146700   3.396345
     9  H    3.872800   3.396345   2.146700   1.070000   2.146700
    10  H    2.146700   3.396345   3.872800   3.396345   2.146700
    11  N    2.486942   1.470000   2.486942   3.772644   4.272800
    12  O    2.774763   2.313553   3.568038   4.738782   4.980245
    13  O    3.568038   2.313553   2.774763   4.174262   4.980245
    14  C    3.838989   4.342800   3.838989   2.548270   1.540000
    15  C    4.319885   5.155758   4.935478   3.770359   2.509019
    16  C    3.778088   4.934829   5.142562   4.296600   2.895200
    17  H    2.906944   4.111950   4.472271   3.825764   2.485692
    18  H    3.866778   5.052761   5.350091   4.597622   3.249570
    19  H    4.631806   5.844027   6.102928   5.257355   3.865326
    20  C    5.094654   5.283883   4.413732   3.013092   2.667358
    21  H    5.079050   5.014003   3.962597   2.630711   2.752664
    22  H    5.499791   5.631322   4.719506   3.372179   3.147618
    23  H    5.890556   6.187354   5.370782   3.977756   3.498263
    24  S    6.500067   7.277048   6.924479   5.677750   4.640291
    25  O    7.933869   8.701168   8.285156   6.986648   6.004099
    26  O    6.364715   6.900368   6.354683   5.103277   4.351776
    27  C    6.360953   7.339109   7.294844   6.258290   5.075962
    28  F    6.889830   8.011037   8.097768   7.089713   5.792846
    29  F    7.319149   8.222005   8.143892   7.142349   6.081261
    30  F    5.182570   6.194186   6.293811   5.417313   4.223550
    31  O    5.749839   6.556301   6.225607   4.960529   3.831763
                    6          7          8          9         10
     6  C    0.000000
     7  H    2.146700   0.000000
     8  H    3.872800   4.280590   0.000000
     9  H    3.396345   4.942800   2.471400   0.000000
    10  H    1.070000   2.471400   4.942800   4.280590   0.000000
    11  N    3.772644   2.693767   2.693767   4.631321   4.631321
    12  O    4.174262   2.491918   3.883680   5.677455   4.833237
    13  O    4.738782   3.883680   2.491918   4.833237   5.677455
    14  C    2.548270   4.693509   4.693509   2.736837   2.736837
    15  C    2.918574   4.950004   5.877947   4.081944   2.571876
    16  C    2.507742   4.101156   6.187493   4.919658   1.654522
    17  H    1.756584   3.198841   5.531982   4.598043   0.878497
    18  H    2.732513   4.090750   6.390949   5.257723   1.879804
    19  H    3.442044   4.820362   7.147421   5.843398   2.509098
    20  C    3.943753   6.045022   5.012427   2.603790   4.265863
    21  H    4.124950   6.094818   4.398272   1.964273   4.654071
    22  H    4.398358   6.449633   5.247427   2.882589   4.729861
    23  H    4.655738   6.785920   5.977139   3.572152   4.804456
    24  S    5.151632   7.086447   7.763083   5.705943   4.744476
    25  O    6.566256   8.513848   9.084786   6.896500   6.124866
    26  O    5.115763   7.083510   7.067608   4.966358   4.988962
    27  C    5.139374   6.715669   8.221341   6.543355   4.508354
    28  F    5.670973   7.109635   9.081513   7.448132   4.852596
    29  F    6.185477   7.660935   9.010004   7.360772   5.629451
    30  F    4.073604   5.482063   7.248673   5.868653   3.456999
    31  O    4.348484   6.358607   7.104900   5.052070   3.933915
                   11         12         13         14         15
    11  N    0.000000
    12  O    1.196800   0.000000
    13  O    1.196800   2.072918   0.000000
    14  C    5.812800   6.494439   6.494439   0.000000
    15  C    6.595659   7.090127   7.425336   1.355200   0.000000
    16  C    6.245768   6.487731   7.244693   2.509019   1.540000
    17  H    5.368099   5.571698   6.395960   2.640315   2.148263
    18  H    6.297870   6.472287   7.318879   3.003658   2.148263
    19  H    7.107028   7.262036   8.137793   3.327561   2.148263
    20  C    6.716543   7.562221   7.187348   1.540000   2.509019
    21  H    6.374374   7.318579   6.703789   2.148263   3.327561
    22  H    7.030549   7.896681   7.453038   2.148263   3.003658
    23  H    7.630505   8.435256   8.133558   2.148263   2.640315
    24  S    8.701557   9.212053   9.472467   3.309798   2.534929
    25  O   10.138669  10.662845  10.888616   4.576604   3.798000
    26  O    8.302803   8.943290   8.937195   3.141529   2.969971
    27  C    8.653311   8.961128   9.549499   4.124964   3.143098
    28  F    9.301451   9.496981  10.278794   4.839524   3.617674
    29  F    9.483757   9.792968  10.334087   5.181280   4.370305
    30  F    7.444207   7.695619   8.373391   3.639547   2.817724
    31  O    8.006882   8.519904   8.800823   2.412344   1.430000
                   16         17         18         19         20
    16  C    0.000000
    17  H    1.070000   0.000000
    18  H    1.070000   1.747303   0.000000
    19  H    1.070000   1.747303   1.747303   0.000000
    20  C    3.936621   4.155912   4.395714   4.623095   0.000000
    21  H    4.623095   4.731211   4.943183   5.434963   1.070000
    22  H    4.395714   4.509286   5.043553   4.943183   1.070000
    23  H    4.155912   4.619094   4.509286   4.731211   1.070000
    24  S    3.443389   4.404945   3.410605   3.659379   3.514813
    25  O    4.703089   5.693297   4.734818   4.685459   4.481212
    26  O    4.086321   4.870366   3.955011   4.613801   2.970206
    27  C    3.243417   4.263248   2.737264   3.379203   4.817141
    28  F    3.388378   4.429236   3.036037   3.094184   5.644260
    29  F    4.520315   5.496747   3.872804   4.700645   5.687019
    30  F    2.549755   3.410638   1.729918   2.993634   4.638408
    31  O    2.572683   3.396477   3.061399   2.684824   2.841797
                   21         22         23         24         25
    21  H    0.000000
    22  H    1.747303   0.000000
    23  H    1.747303   1.747303   0.000000
    24  S    4.223826   4.189133   2.779716   0.000000
    25  O    5.221849   4.975141   3.564577   1.469600   0.000000
    26  O    3.354684   3.853343   2.172371   1.469600   2.399847
    27  C    5.415395   5.585894   4.297538   1.780000   2.659333
    28  F    6.386370   6.252317   5.161410   2.567664   3.028846
    29  F    6.140056   6.538123   5.047845   2.567664   3.028846
    30  F    5.106384   5.476649   4.393535   2.567664   3.803218
    31  O    3.808826   3.208203   2.465355   1.670000   2.566082
                   26         27         28         29         30
    26  O    0.000000
    27  C    2.659333   0.000000
    28  F    3.803218   1.350000   0.000000
    29  F    3.028846   1.350000   2.204541   0.000000
    30  F    3.028846   1.350000   2.204541   2.204541   0.000000
    31  O    2.566082   2.817629   3.140149   3.984035   3.140149
                   31
    31  O    0.000000
 Stoichiometry    C11H10F3NO5S
 Framework group  C1[X(C11H10F3NO5S)]
 Deg. of freedom    87
 Full point group                 C1      NOp   1
 Largest Abelian subgroup         C1      NOp   1
 Largest concise Abelian subgroup C1      NOp   1
                         Standard orientation:                         
 ---------------------------------------------------------------------
 Center     Atomic      Atomic             Coordinates (Angstroms)
 Number     Number       Type             X           Y           Z
 ---------------------------------------------------------------------
      1          6           0       -3.121639   -0.998033    0.440530
      2          6           0       -4.074641   -0.122362   -0.096974
      3          6           0       -3.710341    1.187928   -0.435124
      4          6           0       -2.393038    1.622548   -0.235771
      5          6           0       -1.440036    0.746877    0.301732
      6          6           0       -1.804337   -0.563413    0.639883
      7          1           0       -3.399791   -1.998469    0.698715
      8          1           0       -4.437979    1.856522   -0.845520
      9          1           0       -2.114886    2.622984   -0.493957
     10          1           0       -1.076698   -1.232007    1.050278
     11          7           0       -5.456427   -0.578257   -0.306085
     12          8           0       -5.767541   -1.697250   -0.017304
     13          8           0       -6.270294    0.169568   -0.765115
     14          6           0        0.007549    1.224481    0.520801
     15          6           0        0.929133    0.377679    1.040585
     16          6           0        0.528803   -1.062201    1.412179
     17          1           0       -0.502112   -1.083290    1.697958
     18          1           0        0.678190   -1.702965    0.568375
     19          1           0        1.132180   -1.400783    2.228389
     20          6           0        0.407879    2.664361    0.149207
     21          1           0       -0.195497    3.002944   -0.667003
     22          1           0        0.258493    3.305125    0.993011
     23          1           0        1.438794    2.685451   -0.136572
     24         16           0        3.174443    0.514213   -0.128094
     25          8           0        4.555853    0.969983    0.080960
     26          8           0        2.589211    1.231888   -1.269220
     27          6           0        3.170581   -1.234255   -0.461630
     28          9           0        3.708186   -1.893523    0.586628
     29          9           0        3.899034   -1.482392   -1.570812
     30          9           0        1.901594   -1.652933   -0.653671
     31          8           0        2.273320    0.821168    1.244005
 ---------------------------------------------------------------------
 Rotational constants (GHZ):           0.7035951           0.1256870           0.1159016
 General basis read from cards:  (5D, 7F)
 There are   638 symmetry adapted cartesian basis functions of A   symmetry.
 There are   565 symmetry adapted basis functions of A   symmetry.
   565 basis functions,   936 primitive gaussians,   638 cartesian basis functions
    83 alpha electrons       83 beta electrons
       nuclear repulsion energy      1967.2826261538 Hartrees.
 NAtoms=   31 NActive=   31 NUniq=   31 SFac= 1.00D+00 NAtFMM=   60 NAOKFM=F Big=F
 Integral buffers will be    131072 words long.
 Raffenetti 2 integral format.
 Two-electron integral symmetry is turned on.
 One-electron integrals computed using PRISM.
 NBasis=   565 RedAO= T EigKep=  1.65D-04  NBF=   565
 NBsUse=   565 1.00D-06 EigRej= -1.00D+00 NBFU=   565
 ExpMin= 4.91D-02 ExpMax= 6.07D+04 ExpMxC= 2.07D+03 IAcc=3 IRadAn=         5 AccDes= 0.00D+00
 Harris functional with IExCor= 1009 and IRadAn=       5 diagonalized for initial guess.
 HarFok:  IExCor= 1009 AccDes= 0.00D+00 IRadAn=         5 IDoV= 1 UseB2=F ITyADJ=14
 ICtDFT=  3500011 ScaDFX=  1.000000  1.000000  1.000000  1.000000
 FoFCou: FMM=F IPFlag=           0 FMFlag=      100000 FMFlg1=           0
         NFxFlg=           0 DoJE=T BraDBF=F KetDBF=T FulRan=T
         wScrn=  0.000000 ICntrl=       500 IOpCl=  0 I1Cent=   200000004 NGrid=           0
         NMat0=    1 NMatS0=      1 NMatT0=    0 NMatD0=    1 NMtDS0=    0 NMtDT0=    0
 Petite list used in FoFCou.
 Requested convergence on RMS density matrix=1.00D-08 within 128 cycles.
 Requested convergence on MAX density matrix=1.00D-06.
 Requested convergence on             energy=1.00D-06.
 No special actions if energy rises.
 SCF Done:  E(RM062X) =  -1553.04757903     A.U. after   14 cycles
            NFock= 14  Conv=0.80D-08     -V/T= 2.0052

 **********************************************************************

            Population analysis using the SCF Density.

 **********************************************************************

 Orbital symmetries:
       Occupied  (A) (A) (A) (A) (A) (A) (A) (A) (A) (A) (A) (A)
                 (A) (A) (A) (A) (A) (A) (A) (A) (A) (A) (A) (A)
                 (A) (A) (A) (A) (A) (A) (A) (A) (A) (A) (A) (A)
                 (A) (A) (A) (A) (A) (A) (A) (A) (A) (A) (A) (A)
                 (A) (A) (A) (A) (A) (A) (A) (A) (A) (A) (A) (A)
                 (A) (A) (A) (A) (A) (A) (A) (A) (A) (A) (A) (A)
                 (A) (A) (A) (A) (A) (A) (A) (A) (A) (A) (A)
       Virtual   (A) (A) (A) (A) (A) (A) (A) (A) (A) (A) (A) (A)
                 (A) (A) (A) (A) (A) (A) (A) (A) (A) (A) (A) (A)
                 (A) (A) (A) (A) (A) (A) (A) (A) (A) (A) (A) (A)
                 (A) (A) (A) (A) (A) (A) (A) (A) (A) (A) (A) (A)
                 (A) (A) (A) (A) (A) (A) (A) (A) (A) (A) (A) (A)
                 (A) (A) (A) (A) (A) (A) (A) (A) (A) (A) (A) (A)
                 (A) (A) (A) (A) (A) (A) (A) (A) (A) (A) (A) (A)
                 (A) (A) (A) (A) (A) (A) (A) (A) (A) (A) (A) (A)
                 (A) (A) (A) (A) (A) (A) (A) (A) (A) (A) (A) (A)
                 (A) (A) (A) (A) (A) (A) (A) (A) (A) (A) (A) (A)
                 (A) (A) (A) (A) (A) (A) (A) (A) (A) (A) (A) (A)
                 (A) (A) (A) (A) (A) (A) (A) (A) (A) (A) (A) (A)
                 (A) (A) (A) (A) (A) (A) (A) (A) (A) (A) (A) (A)
                 (A) (A) (A) (A) (A) (A) (A) (A) (A) (A) (A) (A)
                 (A) (A) (A) (A) (A) (A) (A) (A) (A) (A) (A) (A)
                 (A) (A) (A) (A) (A) (A) (A) (A) (A) (A) (A) (A)
                 (A) (A) (A) (A) (A) (A) (A) (A) (A) (A) (A) (A)
                 (A) (A) (A) (A) (A) (A) (A) (A) (A) (A) (A) (A)
                 (A) (A) (A) (A) (A) (A) (A) (A) (A) (A) (A) (A)
                 (A) (A) (A) (A) (A) (A) (A) (A) (A) (A) (A) (A)
                 (A) (A) (A) (A) (A) (A) (A) (A) (A) (A) (A) (A)
                 (A) (A) (A) (A) (A) (A) (A) (A) (A) (A) (A) (A)
                 (A) (A) (A) (A) (A) (A) (A) (A) (A) (A) (A) (A)
                 (A) (A) (A) (A) (A) (A) (A) (A) (A) (A) (A) (A)
                 (A) (A) (A) (A) (A) (A) (A) (A) (A) (A) (A) (A)
                 (A) (A) (A) (A) (A) (A) (A) (A) (A) (A) (A) (A)
                 (A) (A) (A) (A) (A) (A) (A) (A) (A) (A) (A) (A)
                 (A) (A) (A) (A) (A) (A) (A) (A) (A) (A) (A) (A)
                 (A) (A) (A) (A) (A) (A) (A) (A) (A) (A) (A) (A)
                 (A) (A) (A) (A) (A) (A) (A) (A) (A) (A) (A) (A)
                 (A) (A) (A) (A) (A) (A) (A) (A) (A) (A) (A) (A)
                 (A) (A) (A) (A) (A) (A) (A) (A) (A) (A) (A) (A)
                 (A) (A) (A) (A) (A) (A) (A) (A) (A) (A) (A) (A)
                 (A) (A) (A) (A) (A) (A) (A) (A) (A) (A) (A) (A)
                 (A) (A) (A) (A) (A) (A) (A) (A) (A) (A) (A) (A)
                 (A) (A) (A) (A) (A) (A) (A) (A) (A) (A) (A) (A)
                 (A) (A) (A) (A) (A) (A) (A) (A) (A) (A) (A) (A)
                 (A) (A) (A) (A) (A) (A) (A) (A) (A) (A) (A) (A)
                 (A) (A) (A) (A) (A) (A) (A) (A) (A) (A) (A) (A)
                 (A) (A) (A) (A) (A) (A) (A) (A) (A) (A) (A) (A)
                 (A) (A)
 The electronic state is 1-A.
 Alpha  occ. eigenvalues --  -90.17627 -25.35455 -25.35018 -25.34898 -19.75338
 Alpha  occ. eigenvalues --  -19.66964 -19.66786 -19.66577 -19.66572 -15.00956
 Alpha  occ. eigenvalues --  -10.90389 -10.66444 -10.64185 -10.61878 -10.61423
 Alpha  occ. eigenvalues --  -10.60594 -10.60423 -10.60046 -10.58211 -10.57539
 Alpha  occ. eigenvalues --  -10.56804  -8.50299  -6.42523  -6.42369  -6.42251
 Alpha  occ. eigenvalues --   -1.52851  -1.44711  -1.43899  -1.39837  -1.30264
 Alpha  occ. eigenvalues --   -1.21541  -1.19532  -1.15230  -1.01199  -0.96345
 Alpha  occ. eigenvalues --   -0.93214  -0.90780  -0.89558  -0.86120  -0.82726
 Alpha  occ. eigenvalues --   -0.80741  -0.79127  -0.76458  -0.76009  -0.74698
 Alpha  occ. eigenvalues --   -0.72947  -0.69669  -0.67754  -0.65386  -0.64742
 Alpha  occ. eigenvalues --   -0.64646  -0.64354  -0.63086  -0.62336  -0.61417
 Alpha  occ. eigenvalues --   -0.60758  -0.60299  -0.59954  -0.58723  -0.58432
 Alpha  occ. eigenvalues --   -0.57297  -0.56220  -0.54851  -0.54150  -0.52434
 Alpha  occ. eigenvalues --   -0.52110  -0.50637  -0.48258  -0.47969  -0.47687
 Alpha  occ. eigenvalues --   -0.47438  -0.45898  -0.44878  -0.43572  -0.43195
 Alpha  occ. eigenvalues --   -0.41259  -0.40955  -0.39162  -0.39013  -0.38450
 Alpha  occ. eigenvalues --   -0.37860  -0.34824  -0.31981
 Alpha virt. eigenvalues --   -0.07444  -0.02285  -0.02078  -0.00477   0.02846
 Alpha virt. eigenvalues --    0.03553   0.05174   0.05467   0.07188   0.07461
 Alpha virt. eigenvalues --    0.08011   0.08477   0.10231   0.10768   0.11323
 Alpha virt. eigenvalues --    0.12468   0.13894   0.14117   0.14439   0.14857
 Alpha virt. eigenvalues --    0.15139   0.15600   0.16499   0.16694   0.17217
 Alpha virt. eigenvalues --    0.17621   0.17849   0.19484   0.19848   0.20372
 Alpha virt. eigenvalues --    0.20831   0.21816   0.22300   0.23221   0.24464
 Alpha virt. eigenvalues --    0.25512   0.25903   0.27112   0.27572   0.28098
 Alpha virt. eigenvalues --    0.28156   0.29526   0.30124   0.31686   0.32500
 Alpha virt. eigenvalues --    0.34607   0.35986   0.36685   0.38318   0.39530
 Alpha virt. eigenvalues --    0.39960   0.40399   0.40554   0.41349   0.42219
 Alpha virt. eigenvalues --    0.42474   0.43169   0.43384   0.44329   0.45249
 Alpha virt. eigenvalues --    0.45575   0.45689   0.46149   0.46852   0.47432
 Alpha virt. eigenvalues --    0.48155   0.48634   0.49466   0.50227   0.51548
 Alpha virt. eigenvalues --    0.52324   0.52456   0.53349   0.53918   0.55243
 Alpha virt. eigenvalues --    0.55446   0.55967   0.56207   0.57516   0.58695
 Alpha virt. eigenvalues --    0.59515   0.60152   0.60345   0.60947   0.61286
 Alpha virt. eigenvalues --    0.61990   0.62471   0.63487   0.63948   0.64082
 Alpha virt. eigenvalues --    0.64936   0.65655   0.66949   0.67361   0.68216
 Alpha virt. eigenvalues --    0.68635   0.69245   0.69852   0.70157   0.71063
 Alpha virt. eigenvalues --    0.71553   0.71844   0.72517   0.72739   0.73032
 Alpha virt. eigenvalues --    0.73685   0.74037   0.74300   0.74892   0.75342
 Alpha virt. eigenvalues --    0.76265   0.76545   0.77380   0.77793   0.78308
 Alpha virt. eigenvalues --    0.78652   0.78980   0.79605   0.80200   0.80820
 Alpha virt. eigenvalues --    0.82014   0.83078   0.84974   0.85344   0.86242
 Alpha virt. eigenvalues --    0.86711   0.87656   0.88651   0.89854   0.90413
 Alpha virt. eigenvalues --    0.91639   0.92628   0.93989   0.95571   0.96766
 Alpha virt. eigenvalues --    0.98052   0.99740   1.01486   1.04146   1.06172
 Alpha virt. eigenvalues --    1.06591   1.07658   1.09039   1.10567   1.11588
 Alpha virt. eigenvalues --    1.12930   1.13670   1.15103   1.16880   1.18493
 Alpha virt. eigenvalues --    1.20090   1.21250   1.21783   1.22315   1.22907
 Alpha virt. eigenvalues --    1.24539   1.25765   1.26346   1.27018   1.28316
 Alpha virt. eigenvalues --    1.28911   1.30121   1.31093   1.32284   1.33402
 Alpha virt. eigenvalues --    1.34610   1.36099   1.36614   1.36723   1.38866
 Alpha virt. eigenvalues --    1.40492   1.41370   1.42383   1.45447   1.47253
 Alpha virt. eigenvalues --    1.48127   1.50367   1.51412   1.51947   1.54153
 Alpha virt. eigenvalues --    1.54794   1.56177   1.56716   1.58764   1.60745
 Alpha virt. eigenvalues --    1.61306   1.61507   1.62580   1.63073   1.64093
 Alpha virt. eigenvalues --    1.64800   1.66610   1.67495   1.68981   1.69992
 Alpha virt. eigenvalues --    1.70498   1.71520   1.73492   1.74465   1.76050
 Alpha virt. eigenvalues --    1.76669   1.77888   1.78464   1.78912   1.80285
 Alpha virt. eigenvalues --    1.80524   1.81080   1.81909   1.83017   1.84196
 Alpha virt. eigenvalues --    1.84690   1.86380   1.87012   1.87581   1.89330
 Alpha virt. eigenvalues --    1.90466   1.90795   1.91447   1.91560   1.91648
 Alpha virt. eigenvalues --    1.93033   1.93578   1.94664   1.95792   1.95988
 Alpha virt. eigenvalues --    1.96944   1.97156   1.98940   1.99565   2.00381
 Alpha virt. eigenvalues --    2.00990   2.01883   2.02247   2.03200   2.04637
 Alpha virt. eigenvalues --    2.06454   2.06675   2.08213   2.08963   2.09748
 Alpha virt. eigenvalues --    2.10189   2.10892   2.11776   2.13082   2.13734
 Alpha virt. eigenvalues --    2.14500   2.15864   2.16753   2.17853   2.19242
 Alpha virt. eigenvalues --    2.20196   2.20373   2.22013   2.22798   2.23288
 Alpha virt. eigenvalues --    2.24248   2.25163   2.25657   2.26897   2.27688
 Alpha virt. eigenvalues --    2.28056   2.29186   2.30746   2.31941   2.32149
 Alpha virt. eigenvalues --    2.33194   2.34203   2.34781   2.35455   2.36416
 Alpha virt. eigenvalues --    2.37610   2.38417   2.39211   2.40713   2.41535
 Alpha virt. eigenvalues --    2.42447   2.43711   2.44346   2.45905   2.47254
 Alpha virt. eigenvalues --    2.48166   2.48340   2.49686   2.49895   2.51117
 Alpha virt. eigenvalues --    2.52025   2.53637   2.54245   2.55922   2.57388
 Alpha virt. eigenvalues --    2.59351   2.61411   2.63657   2.64885   2.66664
 Alpha virt. eigenvalues --    2.67800   2.68912   2.70633   2.71079   2.75396
 Alpha virt. eigenvalues --    2.76114   2.76922   2.77600   2.78276   2.79467
 Alpha virt. eigenvalues --    2.80477   2.81932   2.84433   2.86069   2.86278
 Alpha virt. eigenvalues --    2.88402   2.90820   2.91742   2.92532   2.93327
 Alpha virt. eigenvalues --    2.95346   2.95807   2.96392   2.97724   2.99259
 Alpha virt. eigenvalues --    3.01524   3.02221   3.04044   3.04230   3.07346
 Alpha virt. eigenvalues --    3.11905   3.12693   3.15287   3.18000   3.18408
 Alpha virt. eigenvalues --    3.21627   3.26051   3.28819   3.29352   3.30793
 Alpha virt. eigenvalues --    3.34075   3.40676   3.41770   3.44373   3.49108
 Alpha virt. eigenvalues --    3.51095   3.55704   3.57945   3.61190   3.62968
 Alpha virt. eigenvalues --    3.66669   3.69502   3.74776   3.90501   3.91541
 Alpha virt. eigenvalues --    3.93664   4.06127   4.11724   4.16673   4.17065
 Alpha virt. eigenvalues --    4.20393   4.26537   4.44578   4.61684   4.62445
 Alpha virt. eigenvalues --    4.65255   4.66826   4.71149   4.77078   4.80963
 Alpha virt. eigenvalues --    4.94567   4.95198   5.04825   5.07284   5.08891
 Alpha virt. eigenvalues --    5.08981   5.10146   5.12271   5.12739   5.12924
 Alpha virt. eigenvalues --    5.14187   5.14475   5.16967   5.17096   5.18192
 Alpha virt. eigenvalues --    5.20704   5.23858   5.24169   5.27550   5.34273
 Alpha virt. eigenvalues --    5.36386   5.38071   5.44065   5.51146   5.54827
 Alpha virt. eigenvalues --    5.55595   5.56189   5.61528   6.09656   6.09665
 Alpha virt. eigenvalues --    6.12705   6.13372   6.18190   6.23810   6.28187
 Alpha virt. eigenvalues --    6.29442   6.30143   6.32037   6.35239   6.38404
 Alpha virt. eigenvalues --    6.38503   6.39591   6.43332   6.50463   6.58743
 Alpha virt. eigenvalues --    6.59213   6.60258   6.60560   6.65366   6.70754
 Alpha virt. eigenvalues --    6.72846   6.73018   6.75512   6.76800   6.77153
 Alpha virt. eigenvalues --    6.77259   6.77633   6.78014   6.78709   6.79160
 Alpha virt. eigenvalues --    6.79354   6.80626   6.80691   6.81013   6.81674
 Alpha virt. eigenvalues --    6.81876   6.82256   6.82786   6.83032   6.84487
 Alpha virt. eigenvalues --    6.85374   6.85494   6.85824   6.87234   6.88831
 Alpha virt. eigenvalues --    6.98888   7.00238   7.02849   7.02858   7.03353
 Alpha virt. eigenvalues --    7.04083   7.11628   7.12030   7.15356   7.18569
 Alpha virt. eigenvalues --    7.38267   7.40773   7.56902   7.68251   8.18566
 Alpha virt. eigenvalues --    8.21145   8.21230   8.23275   8.23664   8.25871
 Alpha virt. eigenvalues --    8.33901   8.37232   8.38300   8.50806   8.51187
 Alpha virt. eigenvalues --    8.55231   8.69600   8.70033   8.72418   9.16250
 Alpha virt. eigenvalues --    9.33823   9.49919  14.27584  15.57037  16.52332
 Alpha virt. eigenvalues --   21.56763  43.59878  43.73116  43.82835  57.05492
 Alpha virt. eigenvalues --   57.09664  57.23663
          Condensed to atoms (all electrons):
               1          2          3          4          5          6
     1  C    5.328170   0.223407  -0.031724  -0.130073   0.124433   0.083912
     2  C    0.223407   5.376357   0.222512   0.143182  -0.188464   0.149996
     3  C   -0.031724   0.222512   5.252892   0.159937   0.129113  -0.133194
     4  C   -0.130073   0.143182   0.159937   5.282602   0.227664   0.039082
     5  C    0.124433  -0.188464   0.129113   0.227664   5.274486   0.229056
     6  C    0.083912   0.149996  -0.133194   0.039082   0.229056   5.577907
     7  H    0.497879  -0.053688   0.012868  -0.002557   0.016629  -0.107344
     8  H    0.012495  -0.050053   0.483774  -0.092673   0.015950  -0.002474
     9  H   -0.001071   0.015926  -0.061192   0.458266  -0.068916   0.013240
    10  H   -0.064251   0.016523  -0.001593   0.013298  -0.070806   0.493950
    11  N   -0.047692   0.092977  -0.042859   0.019496  -0.000219   0.023157
    12  O   -0.019317  -0.069832   0.011060  -0.002732  -0.000597   0.005028
    13  O    0.011773  -0.073251  -0.020681   0.004619  -0.000355  -0.003083
    14  C    0.008107   0.000977   0.010323  -0.083161   0.313124  -0.058859
    15  C    0.002806  -0.000255  -0.000187   0.015425  -0.024708  -0.040309
    16  C    0.005659  -0.000546  -0.000182  -0.001598  -0.013527  -0.156430
    17  H    0.004197  -0.000483  -0.000231   0.000493   0.014563  -0.114221
    18  H    0.001483  -0.000081   0.000029  -0.000217  -0.001339   0.000311
    19  H   -0.000507   0.000019   0.000001   0.000081   0.001152   0.006648
    20  C   -0.000173  -0.000006   0.001073  -0.008724  -0.055456   0.008121
    21  H    0.000021  -0.000093   0.001885   0.005458  -0.021254  -0.000661
    22  H    0.000010   0.000004  -0.000037   0.001817  -0.001358  -0.000366
    23  H    0.000003   0.000003  -0.000036   0.000260   0.007268  -0.000003
    24  S   -0.000007   0.000000  -0.000001   0.000027  -0.000100  -0.000005
    25  O   -0.000000  -0.000000  -0.000000  -0.000000  -0.000002  -0.000000
    26  O    0.000001  -0.000000   0.000000  -0.000028  -0.000298  -0.000004
    27  C    0.000000  -0.000000   0.000000  -0.000003  -0.000017   0.000077
    28  F   -0.000000  -0.000000  -0.000000   0.000000   0.000001  -0.000004
    29  F   -0.000000  -0.000000   0.000000   0.000000  -0.000000   0.000000
    30  F   -0.000006  -0.000000  -0.000000  -0.000002   0.000096  -0.000098
    31  O    0.000020  -0.000000   0.000002  -0.000140   0.007483  -0.000771
               7          8          9         10         11         12
     1  C    0.497879   0.012495  -0.001071  -0.064251  -0.047692  -0.019317
     2  C   -0.053688  -0.050053   0.015926   0.016523   0.092977  -0.069832
     3  C    0.012868   0.483774  -0.061192  -0.001593  -0.042859   0.011060
     4  C   -0.002557  -0.092673   0.458266   0.013298   0.019496  -0.002732
     5  C    0.016629   0.015950  -0.068916  -0.070806  -0.000219  -0.000597
     6  C   -0.107344  -0.002474   0.013240   0.493950   0.023157   0.005028
     7  H    0.634402   0.000019   0.000020  -0.014475  -0.015373  -0.009535
     8  H    0.000019   0.622734  -0.011519   0.000031  -0.015178   0.003021
     9  H    0.000020  -0.011519   0.655992  -0.000084  -0.001265   0.000021
    10  H   -0.014475   0.000031  -0.000084   0.755021  -0.001855   0.000679
    11  N   -0.015373  -0.015178  -0.001265  -0.001855   5.885157   0.222929
    12  O   -0.009535   0.003021   0.000021   0.000679   0.222929   8.565273
    13  O    0.003137  -0.010151   0.000459   0.000003   0.222718  -0.191046
    14  C   -0.000309  -0.000261  -0.022861  -0.027520   0.001018  -0.000069
    15  C    0.000081   0.000004   0.000913   0.008828  -0.000188   0.000009
    16  C    0.000395  -0.000002  -0.000002  -0.092408   0.000187  -0.000008
    17  H    0.001133  -0.000002   0.000026   0.008724   0.000045  -0.000024
    18  H    0.000033   0.000000  -0.000004   0.024624  -0.000018   0.000008
    19  H   -0.000020   0.000000  -0.000001  -0.001141   0.000001  -0.000001
    20  C    0.000001  -0.000016   0.006123  -0.000165  -0.000038   0.000001
    21  H    0.000000   0.000032   0.000146   0.000014  -0.000069  -0.000000
    22  H    0.000000  -0.000001   0.000695  -0.000014   0.000000  -0.000000
    23  H   -0.000000  -0.000000   0.000019   0.000025  -0.000004   0.000000
    24  S    0.000000  -0.000000   0.000002  -0.000145   0.000002  -0.000000
    25  O    0.000000  -0.000000   0.000000  -0.000001   0.000000  -0.000000
    26  O    0.000000   0.000000  -0.000003  -0.000014   0.000002  -0.000000
    27  C   -0.000000   0.000000  -0.000000   0.000111  -0.000000   0.000000
    28  F    0.000000  -0.000000  -0.000000  -0.000004   0.000000  -0.000000
    29  F    0.000000   0.000000   0.000000  -0.000001   0.000000  -0.000000
    30  F    0.000000   0.000000  -0.000000  -0.001076   0.000005  -0.000000
    31  O    0.000000  -0.000000  -0.000004   0.000217  -0.000003   0.000000
              13         14         15         16         17         18
     1  C    0.011773   0.008107   0.002806   0.005659   0.004197   0.001483
     2  C   -0.073251   0.000977  -0.000255  -0.000546  -0.000483  -0.000081
     3  C   -0.020681   0.010323  -0.000187  -0.000182  -0.000231   0.000029
     4  C    0.004619  -0.083161   0.015425  -0.001598   0.000493  -0.000217
     5  C   -0.000355   0.313124  -0.024708  -0.013527   0.014563  -0.001339
     6  C   -0.003083  -0.058859  -0.040309  -0.156430  -0.114221   0.000311
     7  H    0.003137  -0.000309   0.000081   0.000395   0.001133   0.000033
     8  H   -0.010151  -0.000261   0.000004  -0.000002  -0.000002   0.000000
     9  H    0.000459  -0.022861   0.000913  -0.000002   0.000026  -0.000004
    10  H    0.000003  -0.027520   0.008828  -0.092408   0.008724   0.024624
    11  N    0.222718   0.001018  -0.000188   0.000187   0.000045  -0.000018
    12  O   -0.191046  -0.000069   0.000009  -0.000008  -0.000024   0.000008
    13  O    8.567749  -0.000052   0.000009  -0.000007   0.000002  -0.000001
    14  C   -0.000052   5.134612   0.534155  -0.075052  -0.023241  -0.004492
    15  C    0.000009   0.534155   5.227879   0.434473   0.017767  -0.022614
    16  C   -0.000007  -0.075052   0.434473   4.677098   0.405096   0.414484
    17  H    0.000002  -0.023241   0.017767   0.405096   0.675368  -0.039095
    18  H   -0.000001  -0.004492  -0.022614   0.414484  -0.039095   0.591817
    19  H    0.000000   0.009233  -0.012607   0.349414   0.000529  -0.015322
    20  C    0.000006   0.413652  -0.075215   0.007110  -0.000233  -0.000224
    21  H    0.000012  -0.000671   0.008045  -0.000250  -0.000026   0.000050
    22  H    0.000001  -0.011688  -0.004983  -0.000233   0.000055  -0.000030
    23  H    0.000000   0.002091  -0.027364   0.000076  -0.000029   0.000043
    24  S   -0.000000  -0.003692  -0.044149  -0.009471   0.000296   0.000992
    25  O   -0.000000   0.000068   0.003162  -0.000054   0.000002  -0.000004
    26  O   -0.000000   0.003719  -0.003172  -0.000419  -0.000009   0.000335
    27  C   -0.000000   0.001133   0.012074   0.010050  -0.000416   0.004295
    28  F   -0.000000  -0.000115  -0.001534  -0.001106   0.000037  -0.000648
    29  F   -0.000000  -0.000006  -0.000094  -0.000089   0.000003   0.000001
    30  F   -0.000000   0.000089  -0.003770  -0.038864   0.002152  -0.036821
    31  O    0.000000  -0.074487   0.122411  -0.059226   0.004377   0.001866
              19         20         21         22         23         24
     1  C   -0.000507  -0.000173   0.000021   0.000010   0.000003  -0.000007
     2  C    0.000019  -0.000006  -0.000093   0.000004   0.000003   0.000000
     3  C    0.000001   0.001073   0.001885  -0.000037  -0.000036  -0.000001
     4  C    0.000081  -0.008724   0.005458   0.001817   0.000260   0.000027
     5  C    0.001152  -0.055456  -0.021254  -0.001358   0.007268  -0.000100
     6  C    0.006648   0.008121  -0.000661  -0.000366  -0.000003  -0.000005
     7  H   -0.000020   0.000001   0.000000   0.000000  -0.000000   0.000000
     8  H    0.000000  -0.000016   0.000032  -0.000001  -0.000000  -0.000000
     9  H   -0.000001   0.006123   0.000146   0.000695   0.000019   0.000002
    10  H   -0.001141  -0.000165   0.000014  -0.000014   0.000025  -0.000145
    11  N    0.000001  -0.000038  -0.000069   0.000000  -0.000004   0.000002
    12  O   -0.000001   0.000001  -0.000000  -0.000000   0.000000  -0.000000
    13  O    0.000000   0.000006   0.000012   0.000001   0.000000  -0.000000
    14  C    0.009233   0.413652  -0.000671  -0.011688   0.002091  -0.003692
    15  C   -0.012607  -0.075215   0.008045  -0.004983  -0.027364  -0.044149
    16  C    0.349414   0.007110  -0.000250  -0.000233   0.000076  -0.009471
    17  H    0.000529  -0.000233  -0.000026   0.000055  -0.000029   0.000296
    18  H   -0.015322  -0.000224   0.000050  -0.000030   0.000043   0.000992
    19  H    0.620655  -0.000258   0.000001   0.000034  -0.000006  -0.001698
    20  C   -0.000258   4.462357   0.379700   0.387376   0.401371  -0.002776
    21  H    0.000001   0.379700   0.611378  -0.020846  -0.014534   0.000027
    22  H    0.000034   0.387376  -0.020846   0.596417  -0.009695  -0.000105
    23  H   -0.000006   0.401371  -0.014534  -0.009695   0.560030  -0.002988
    24  S   -0.001698  -0.002776   0.000027  -0.000105  -0.002988  13.836042
    25  O    0.000026  -0.000093   0.000001   0.000016  -0.000517   0.573715
    26  O    0.000042  -0.015622   0.000520   0.000704  -0.002775   0.516928
    27  C    0.003040  -0.000045  -0.000009   0.000005   0.000217   0.282821
    28  F   -0.000308   0.000003   0.000000  -0.000000  -0.000008  -0.054149
    29  F    0.000014   0.000000   0.000000  -0.000000  -0.000007  -0.052878
    30  F   -0.000616   0.000017   0.000001  -0.000002  -0.000015  -0.045550
    31  O   -0.005571   0.001222   0.000410   0.001065   0.009175   0.249375
              25         26         27         28         29         30
     1  C   -0.000000   0.000001   0.000000  -0.000000  -0.000000  -0.000006
     2  C   -0.000000  -0.000000  -0.000000  -0.000000  -0.000000  -0.000000
     3  C   -0.000000   0.000000   0.000000  -0.000000   0.000000  -0.000000
     4  C   -0.000000  -0.000028  -0.000003   0.000000   0.000000  -0.000002
     5  C   -0.000002  -0.000298  -0.000017   0.000001  -0.000000   0.000096
     6  C   -0.000000  -0.000004   0.000077  -0.000004   0.000000  -0.000098
     7  H    0.000000   0.000000  -0.000000   0.000000   0.000000   0.000000
     8  H   -0.000000   0.000000   0.000000  -0.000000   0.000000   0.000000
     9  H    0.000000  -0.000003  -0.000000  -0.000000   0.000000  -0.000000
    10  H   -0.000001  -0.000014   0.000111  -0.000004  -0.000001  -0.001076
    11  N    0.000000   0.000002  -0.000000   0.000000   0.000000   0.000005
    12  O   -0.000000  -0.000000   0.000000  -0.000000  -0.000000  -0.000000
    13  O   -0.000000  -0.000000  -0.000000  -0.000000  -0.000000  -0.000000
    14  C    0.000068   0.003719   0.001133  -0.000115  -0.000006   0.000089
    15  C    0.003162  -0.003172   0.012074  -0.001534  -0.000094  -0.003770
    16  C   -0.000054  -0.000419   0.010050  -0.001106  -0.000089  -0.038864
    17  H    0.000002  -0.000009  -0.000416   0.000037   0.000003   0.002152
    18  H   -0.000004   0.000335   0.004295  -0.000648   0.000001  -0.036821
    19  H    0.000026   0.000042   0.003040  -0.000308   0.000014  -0.000616
    20  C   -0.000093  -0.015622  -0.000045   0.000003   0.000000   0.000017
    21  H    0.000001   0.000520  -0.000009   0.000000   0.000000   0.000001
    22  H    0.000016   0.000704   0.000005  -0.000000  -0.000000  -0.000002
    23  H   -0.000517  -0.002775   0.000217  -0.000008  -0.000007  -0.000015
    24  S    0.573715   0.516928   0.282821  -0.054149  -0.052878  -0.045550
    25  O    7.971767  -0.073035  -0.029600   0.000375   0.000237   0.001527
    26  O   -0.073035   8.069498  -0.023647   0.001179  -0.000112  -0.000080
    27  C   -0.029600  -0.023647   4.275543   0.263160   0.292123   0.220384
    28  F    0.000375   0.001179   0.263160   9.116518  -0.065728  -0.062449
    29  F    0.000237  -0.000112   0.292123  -0.065728   9.080275  -0.062195
    30  F    0.001527  -0.000080   0.220384  -0.062449  -0.062195   9.236465
    31  O   -0.031911  -0.041363  -0.018866   0.001880   0.000661   0.000733
              31
     1  C    0.000020
     2  C   -0.000000
     3  C    0.000002
     4  C   -0.000140
     5  C    0.007483
     6  C   -0.000771
     7  H    0.000000
     8  H   -0.000000
     9  H   -0.000004
    10  H    0.000217
    11  N   -0.000003
    12  O    0.000000
    13  O    0.000000
    14  C   -0.074487
    15  C    0.122411
    16  C   -0.059226
    17  H    0.004377
    18  H    0.001866
    19  H   -0.005571
    20  C    0.001222
    21  H    0.000410
    22  H    0.001065
    23  H    0.009175
    24  S    0.249375
    25  O   -0.031911
    26  O   -0.041363
    27  C   -0.018866
    28  F    0.001880
    29  F    0.000661
    30  F    0.000733
    31  O    8.168651
 Mulliken charges:
               1
     1  C   -0.009556
     2  C    0.194871
     3  C    0.006449
     4  C   -0.049799
     5  C    0.086396
     6  C   -0.012660
     7  H    0.036703
     8  H    0.044271
     9  H    0.015074
    10  H   -0.046499
    11  N    0.657067
    12  O   -0.514866
    13  O   -0.511861
    14  C   -0.045766
    15  C   -0.126892
    16  C    0.145430
    17  H    0.043147
    18  H    0.080540
    19  H    0.047166
    20  C    0.090912
    21  H    0.050712
    22  H    0.061162
    23  H    0.077400
    24  S    0.757486
    25  O   -0.415678
    26  O   -0.432348
    27  C    0.707573
    28  F   -0.197100
    29  F   -0.192205
    30  F   -0.209924
    31  O   -0.337205
 Sum of Mulliken charges =  -0.00000
 Mulliken charges with hydrogens summed into heavy atoms:
               1
     1  C    0.027147
     2  C    0.194871
     3  C    0.050720
     4  C   -0.034725
     5  C    0.086396
     6  C   -0.059158
    11  N    0.657067
    12  O   -0.514866
    13  O   -0.511861
    14  C   -0.045766
    15  C   -0.126892
    16  C    0.316282
    20  C    0.280186
    24  S    0.757486
    25  O   -0.415678
    26  O   -0.432348
    27  C    0.707573
    28  F   -0.197100
    29  F   -0.192205
    30  F   -0.209924
    31  O   -0.337205
 Electronic spatial extent (au):  <R**2>=           8548.5029
 Charge=             -0.0000 electrons
 Dipole moment (field-independent basis, Debye):
    X=              1.5952    Y=             -0.5269    Z=              1.8798  Tot=              2.5211
 Quadrupole moment (field-independent basis, Debye-Ang):
   XX=           -179.8639   YY=           -120.2960   ZZ=           -128.2597
   XY=            -17.0301   XZ=             -1.9100   YZ=             -1.4346
 Traceless Quadrupole moment (field-independent basis, Debye-Ang):
   XX=            -37.0573   YY=             22.5105   ZZ=             14.5468
   XY=            -17.0301   XZ=             -1.9100   YZ=             -1.4346
 Octapole moment (field-independent basis, Debye-Ang**2):
  XXX=            272.5182  YYY=            -12.2346  ZZZ=            -12.0972  XYY=             21.0140
  XXY=              7.0536  XXZ=             15.4701  XZZ=             16.8970  YZZ=            -17.4156
  YYZ=             -4.0817  XYZ=              9.0636
 Hexadecapole moment (field-independent basis, Debye-Ang**3):
 XXXX=         -10903.2660 YYYY=          -1285.4002 ZZZZ=           -537.0646 XXXY=           -466.0935
 XXXZ=           -211.0926 YYYX=           -101.7843 YYYZ=              5.5969 ZZZX=             -9.8897
 ZZZY=              9.8389 XXYY=          -1722.4516 XXZZ=          -1525.3482 YYZZ=           -309.2512
 XXYZ=              4.7710 YYXZ=              6.8259 ZZXY=            -18.4910
 N-N= 1.967282626154D+03 E-N=-7.587624146659D+03  KE= 1.544986735246D+03
 Calling FoFJK, ICntrl=      2127 FMM=F ISym2X=0 I1Cent= 0 IOpClX= 0 NMat=1 NMatS=1 NMatT=0.
 ***** Axes restored to original set *****
 -------------------------------------------------------------------
 Center     Atomic                   Forces (Hartrees/Bohr)
 Number     Number              X              Y              Z
 -------------------------------------------------------------------
      1        6           0.013151944   -0.001150307    0.014583749
      2        6           0.016023900   -0.000497208   -0.011263542
      3        6           0.001064775    0.000150692   -0.014391915
      4        6          -0.025509793   -0.000591315   -0.005596360
      5        6           0.033330505   -0.002301076   -0.023777259
      6        6          -0.042903744    0.012006145    0.068291541
      7        1          -0.013980514    0.000280753   -0.005308185
      8        1          -0.002131163   -0.000011765    0.014544324
      9        1           0.009706399   -0.000651916    0.008732214
     10        1          -0.065589735    0.054300370    0.076335584
     11        7          -0.007343923    0.000257082    0.005167053
     12        8          -0.013352530   -0.000047203   -0.037863244
     13        8           0.025885637   -0.000059007    0.030386502
     14        6           0.004702756    0.001282494    0.008583078
     15        6          -0.033922671   -0.007967717    0.018071007
     16        6           0.070593387   -0.019915221   -0.038808312
     17        1           0.056346993   -0.063973040   -0.075238690
     18        1          -0.018451957   -0.001656680    0.001951449
     19        1           0.005695500   -0.006428585   -0.022138818
     20        6          -0.035070320    0.000512476   -0.016820364
     21        1           0.001961528    0.009562098    0.015356422
     22        1           0.005833110   -0.020026571    0.005549956
     23        1           0.011983592    0.005443968   -0.004362692
     24       16           0.140007790   -0.004972635    0.068583936
     25        8          -0.068400267   -0.015541294    0.003483960
     26        8          -0.039592971   -0.020475484   -0.047090878
     27        6          -0.034869575    0.022571344   -0.034118953
     28        9           0.000711547    0.013023048    0.023439134
     29        9          -0.007928125   -0.033996415    0.007881651
     30        9           0.030238473    0.029325519   -0.019377631
     31        8          -0.018190550    0.051547451   -0.014784717
 -------------------------------------------------------------------
 Cartesian Forces:  Max     0.140007790 RMS     0.032052654

 GradGradGradGradGradGradGradGradGradGradGradGradGradGradGradGradGradGrad
 Berny optimization.
 FormGI is forming the generalized inverse of G from B-inverse, IUseBI=4.
 Internal  Forces:  Max     0.520878058 RMS     0.083193924
 Search for a local minimum.
 Step number   1 out of a maximum of  155
 All quantities printed in internal units (Hartrees-Bohrs-Radians)
 Mixed Optimization -- RFO/linear search
 Second derivative matrix not updated -- first step.
 ITU=  0
     Eigenvalues ---    0.00237   0.00237   0.00237   0.00635   0.00766
     Eigenvalues ---    0.00766   0.00935   0.01228   0.01295   0.01498
     Eigenvalues ---    0.01680   0.01693   0.02070   0.02070   0.02070
     Eigenvalues ---    0.02070   0.02070   0.02070   0.02070   0.02681
     Eigenvalues ---    0.07243   0.07243   0.07243   0.07243   0.08130
     Eigenvalues ---    0.08789   0.09110   0.09110   0.16000   0.16000
     Eigenvalues ---    0.16000   0.16000   0.16000   0.16000   0.16000
     Eigenvalues ---    0.16000   0.16000   0.16000   0.17310   0.21379
     Eigenvalues ---    0.22000   0.22981   0.24000   0.25000   0.25000
     Eigenvalues ---    0.25000   0.25000   0.25000   0.25000   0.25000
     Eigenvalues ---    0.25000   0.25000   0.25000   0.25000   0.25000
     Eigenvalues ---    0.25000   0.27758   0.28519   0.28519   0.28519
     Eigenvalues ---    0.35740   0.37230   0.37230   0.37230   0.37230
     Eigenvalues ---    0.37230   0.37230   0.37230   0.37230   0.37230
     Eigenvalues ---    0.37230   0.39757   0.40989   0.41268   0.41640
     Eigenvalues ---    0.45389   0.45389   0.45389   0.45389   0.53930
     Eigenvalues ---    0.55021   0.55021   0.55021   0.87694   0.87694
     Eigenvalues ---    1.06448   1.06448
 RFO step:  Lambda=-8.88848001D-01 EMin= 2.36824211D-03
 Linear search not attempted -- first point.
 Maximum step size (   0.300) exceeded in Quadratic search.
    -- Step size scaled by   0.355
 Iteration  1 RMS(Cart)=  0.24716549 RMS(Int)=  0.01158194
 Iteration  2 RMS(Cart)=  0.08750660 RMS(Int)=  0.00122750
 Iteration  3 RMS(Cart)=  0.00284714 RMS(Int)=  0.00011004
 Iteration  4 RMS(Cart)=  0.00000176 RMS(Int)=  0.00011004
 Iteration  5 RMS(Cart)=  0.00000000 RMS(Int)=  0.00011004
 Variable       Old X    -DE/DX   Delta X   Delta X   Delta X     New X
                                 (Linear)    (Quad)   (Total)
    R1        2.64826  -0.03881   0.00000  -0.01048  -0.01052   2.63774
    R2        2.64826  -0.00075   0.00000  -0.00011  -0.00012   2.64814
    R3        2.02201   0.01476   0.00000   0.00416   0.00416   2.02617
    R4        2.64826  -0.04428   0.00000  -0.01201  -0.01205   2.63621
    R5        2.77790  -0.00565   0.00000  -0.00161  -0.00161   2.77629
    R6        2.64826  -0.01805   0.00000  -0.00486  -0.00486   2.64341
    R7        2.02201   0.01454   0.00000   0.00410   0.00410   2.02610
    R8        2.64826   0.02852   0.00000   0.00776   0.00780   2.65606
    R9        2.02201   0.01277   0.00000   0.00360   0.00360   2.02561
   R10        2.64826   0.05042   0.00000   0.01364   0.01367   2.66193
   R11        2.91018   0.12197   0.00000   0.03691   0.03691   2.94709
   R12        2.02201  -0.07634   0.00000  -0.02150  -0.02150   2.00050
   R13        2.26162   0.03050   0.00000   0.00555   0.00555   2.26717
   R14        2.26162   0.03039   0.00000   0.00553   0.00553   2.26715
   R15        2.56096   0.12815   0.00000   0.03188   0.03188   2.59284
   R16        2.91018  -0.01338   0.00000  -0.00405  -0.00405   2.90613
   R17        2.91018  -0.03177   0.00000  -0.00962  -0.00962   2.90056
   R18        2.70231   0.00770   0.00000   0.00211   0.00211   2.70441
   R19        2.02201  -0.04977   0.00000  -0.01402  -0.01402   2.00798
   R20        2.02201   0.00344   0.00000   0.00097   0.00097   2.02298
   R21        2.02201   0.02306   0.00000   0.00650   0.00650   2.02850
   R22        2.02201   0.01769   0.00000   0.00498   0.00498   2.02699
   R23        2.02201   0.02149   0.00000   0.00605   0.00605   2.02806
   R24        2.02201   0.01328   0.00000   0.00374   0.00374   2.02575
   R25        2.77714  -0.06098   0.00000  -0.01227  -0.01227   2.76487
   R26        2.77714  -0.05553   0.00000  -0.01117  -0.01117   2.76597
   R27        3.36371   0.03483   0.00000   0.01061   0.01061   3.37432
   R28        3.15584  -0.00413   0.00000  -0.00114  -0.00114   3.15470
   R29        2.55113  -0.02670   0.00000  -0.00659  -0.00659   2.54454
   R30        2.55113  -0.03566   0.00000  -0.00880  -0.00880   2.54233
   R31        2.55113  -0.03588   0.00000  -0.00886  -0.00886   2.54227
    A1        2.09440   0.01712   0.00000   0.00518   0.00513   2.09953
    A2        2.09440  -0.01098   0.00000  -0.00341  -0.00339   2.09101
    A3        2.09440  -0.00614   0.00000  -0.00177  -0.00175   2.09265
    A4        2.09440  -0.00799   0.00000  -0.00325  -0.00333   2.09106
    A5        2.09440   0.00456   0.00000   0.00180   0.00184   2.09624
    A6        2.09440   0.00344   0.00000   0.00145   0.00149   2.09588
    A7        2.09440  -0.00276   0.00000  -0.00151  -0.00154   2.09285
    A8        2.09440  -0.00078   0.00000   0.00003   0.00004   2.09444
    A9        2.09440   0.00353   0.00000   0.00149   0.00150   2.09590
   A10        2.09440   0.06412   0.00000   0.02054   0.02059   2.11498
   A11        2.09440  -0.03480   0.00000  -0.01120  -0.01122   2.08317
   A12        2.09440  -0.02932   0.00000  -0.00934  -0.00937   2.08503
   A13        2.09440  -0.10122   0.00000  -0.03112  -0.03105   2.06335
   A14        2.09440  -0.24681   0.00000  -0.07723  -0.07727   2.01712
   A15        2.09440   0.34804   0.00000   0.10835   0.10830   2.20269
   A16        2.09440   0.03073   0.00000   0.01016   0.01019   2.10458
   A17        2.09440  -0.08168   0.00000  -0.02754  -0.02757   2.06682
   A18        2.09440   0.05094   0.00000   0.01738   0.01735   2.11175
   A19        2.09440  -0.01986   0.00000  -0.00620  -0.00620   2.08820
   A20        2.09440  -0.01934   0.00000  -0.00603  -0.00603   2.08836
   A21        2.09440   0.03920   0.00000   0.01223   0.01223   2.10662
   A22        2.09440   0.52088   0.00000   0.16250   0.16250   2.25689
   A23        2.09440  -0.27174   0.00000  -0.08478  -0.08478   2.00962
   A24        2.09440  -0.24913   0.00000  -0.07772  -0.07772   2.01667
   A25        2.09440   0.36856   0.00000   0.11498   0.11494   2.20934
   A26        2.09440  -0.19085   0.00000  -0.05954  -0.05957   2.03483
   A27        2.09440  -0.17771   0.00000  -0.05544  -0.05547   2.03893
   A28        1.91063   0.00444   0.00000   0.00147   0.00139   1.91203
   A29        1.91063   0.03821   0.00000   0.01350   0.01346   1.92410
   A30        1.91063  -0.02365   0.00000  -0.00854  -0.00856   1.90208
   A31        1.91063   0.02164   0.00000   0.00839   0.00829   1.91893
   A32        1.91063  -0.03597   0.00000  -0.01331  -0.01336   1.89727
   A33        1.91063  -0.00468   0.00000  -0.00152  -0.00150   1.90913
   A34        1.91063   0.00413   0.00000   0.00140   0.00139   1.91203
   A35        1.91063  -0.00059   0.00000  -0.00020  -0.00020   1.91043
   A36        1.91063   0.00495   0.00000   0.00168   0.00168   1.91231
   A37        1.91063  -0.00221   0.00000  -0.00076  -0.00076   1.90987
   A38        1.91063  -0.00445   0.00000  -0.00150  -0.00151   1.90913
   A39        1.91063  -0.00183   0.00000  -0.00061  -0.00061   1.91002
   A40        1.91063   0.04286   0.00000   0.01388   0.01381   1.92444
   A41        1.91063  -0.03945   0.00000  -0.01286  -0.01284   1.89780
   A42        1.91063  -0.03621   0.00000  -0.01184  -0.01175   1.89888
   A43        1.91063  -0.03912   0.00000  -0.01211  -0.01215   1.89848
   A44        1.91063  -0.00418   0.00000  -0.00055  -0.00050   1.91014
   A45        1.91063   0.07610   0.00000   0.02349   0.02355   1.93419
   A46        1.91063   0.00396   0.00000   0.00142   0.00141   1.91204
   A47        1.91063  -0.01542   0.00000  -0.00508  -0.00507   1.90556
   A48        1.91063   0.03066   0.00000   0.00965   0.00964   1.92027
   A49        1.91063   0.00166   0.00000   0.00035   0.00035   1.91099
   A50        1.91063  -0.00390   0.00000  -0.00068  -0.00070   1.90993
   A51        1.91063  -0.01695   0.00000  -0.00567  -0.00565   1.90498
   A52        1.91063   0.18447   0.00000   0.05755   0.05755   1.96818
    D1        0.00000   0.00514   0.00000   0.00202   0.00197   0.00197
    D2        3.14159   0.00026   0.00000   0.00010   0.00005  -3.14154
    D3        3.14159   0.01095   0.00000   0.00429   0.00431  -3.13728
    D4        0.00000   0.00607   0.00000   0.00237   0.00239   0.00239
    D5       -0.00000   0.00318   0.00000   0.00125   0.00136   0.00136
    D6        3.14159   0.02499   0.00000   0.00976   0.00983  -3.13176
    D7        3.14159  -0.00263   0.00000  -0.00102  -0.00098   3.14061
    D8       -0.00000   0.01917   0.00000   0.00749   0.00749   0.00749
    D9       -0.00000  -0.00334   0.00000  -0.00131  -0.00136  -0.00136
   D10        3.14159  -0.00477   0.00000  -0.00187  -0.00186   3.13974
   D11        3.14159   0.00155   0.00000   0.00061   0.00056  -3.14103
   D12        0.00000   0.00012   0.00000   0.00005   0.00007   0.00007
   D13       -0.00000   0.00249   0.00000   0.00098   0.00098   0.00098
   D14        3.14159   0.00238   0.00000   0.00094   0.00094  -3.14065
   D15        3.14159  -0.00239   0.00000  -0.00094  -0.00094   3.14065
   D16        0.00000  -0.00250   0.00000  -0.00098  -0.00099  -0.00099
   D17        0.00000  -0.00679   0.00000  -0.00266  -0.00261  -0.00261
   D18        3.14159  -0.00074   0.00000  -0.00029  -0.00018   3.14141
   D19        3.14159  -0.00536   0.00000  -0.00210  -0.00211   3.13948
   D20       -0.00000   0.00069   0.00000   0.00027   0.00032   0.00032
   D21       -0.00000   0.01511   0.00000   0.00592   0.00581   0.00581
   D22        3.14159  -0.00419   0.00000  -0.00166  -0.00125   3.14034
   D23        3.14159   0.00906   0.00000   0.00356   0.00338  -3.13821
   D24        0.00000  -0.01024   0.00000  -0.00403  -0.00369  -0.00369
   D25        0.00000  -0.01330   0.00000  -0.00522  -0.00517  -0.00517
   D26        3.14159  -0.03511   0.00000  -0.01373  -0.01386   3.12773
   D27        3.14159   0.00600   0.00000   0.00237   0.00273  -3.13886
   D28       -0.00000  -0.01581   0.00000  -0.00615  -0.00596  -0.00596
   D29        3.14159  -0.04961   0.00000  -0.01984  -0.01971   3.12189
   D30       -0.00000  -0.05573   0.00000  -0.02226  -0.02227  -0.02227
   D31        0.00000  -0.06891   0.00000  -0.02743  -0.02742  -0.02742
   D32        3.14159  -0.07504   0.00000  -0.02985  -0.02998   3.11161
[...]
 4,-0.00028712,0.00064163,-0.00098353,0.00014271,-0.13147006,-0.0088301
 5,-0.12897082,0.13613482,0.01017619,0.08840188,0.00011962,-0.00016106,
 0.00012297,-0.00009608,0.00001537,0.00004939,0.00006514,-0.00010139,0.
 00011363,-0.00010249,0.00004239,0.00009237,0.00020508,-0.00036530,0.00
 000956,0.00005222,0.00051289,-0.00052863,0.00005576,0.00002285,-0.0000
 4833,-0.00001034,0.00000934,-0.00001261,-0.00000187,-0.00004678,0.0000
 1157,0.00046210,0.00012849,-0.00025607,0.00029319,0.00015061,-0.000321
 19,-0.00011840,-0.00006091,0.00011777,-0.00013993,-0.00016531,0.000236
 96,0.00072828,-0.00172059,-0.00174929,-0.00343001,-0.00178910,0.003493
 66,0.00086512,0.00083173,-0.00071724,0.00037733,-0.00023296,0.00019983
 ,0.00061286,0.00049925,0.00071415,-0.00014650,-0.00043555,0.00003504,-
 0.00084612,0.00068647,-0.00024754,-0.00032026,0.00029848,-0.00028097,0
 .00023693,-0.00011242,-0.00007951,0.00007611,-0.00044247,0.00033503,-0
 .35917511,0.26249890,0.14383203,-0.01490083,0.03057396,0.01675074,0.36
 079056,-0.00006094,0.00019792,-0.00026271,-0.00039852,-0.00005578,0.00
 024991,0.00022983,-0.00005110,0.00001110,-0.00065179,0.00003274,0.0004
 1279,0.00119067,-0.00010414,-0.00022674,-0.00032541,-0.00035906,0.0006
 8412,-0.00005463,-0.00006499,0.00005159,-0.00004324,-0.00000805,-0.000
 00688,0.00002559,0.00006468,-0.00012347,-0.00017477,-0.00023745,-0.000
 00221,0.00076077,-0.00003148,-0.00040179,-0.00041638,0.00015620,0.0001
 0646,-0.00022573,-0.00003951,0.00018036,-0.00216812,-0.00111213,0.0003
 8189,0.01305561,0.00287911,-0.00826591,-0.00091706,-0.00057773,0.00130
 125,-0.00049984,-0.00000921,-0.00025281,-0.00006705,-0.00027253,-0.000
 15908,0.00031094,0.00030027,0.00017758,-0.00023106,-0.00014879,-0.0000
 9823,0.00025324,0.00003657,0.00062380,0.00014123,0.00021417,0.00018945
 ,-0.00028776,-0.00021750,-0.00032705,0.26662651,-0.34643303,-0.1447131
 1,-0.00829101,0.01114340,-0.00423664,-0.29178916,0.37091929,-0.0000710
 1,0.00003406,-0.00002458,0.00015546,-0.00000863,-0.00010823,-0.0000848
 0,0.00005452,-0.00002697,0.00014253,0.00004113,-0.00015612,-0.00029278
 ,0.00033760,0.00033881,0.00005179,-0.00019542,0.00027466,-0.00003428,-
 0.00000747,-0.00000565,0.00000037,-0.00001332,0.00000685,-0.00000934,-
 0.00005723,0.00002010,-0.00033646,-0.00008877,0.00000537,-0.00044150,-
 0.00007434,0.00029397,0.00023310,-0.00000773,-0.00008704,0.00017100,0.
 00010837,-0.00017715,-0.00136410,0.00095709,0.00097654,0.00100252,0.00
 214642,-0.00273409,-0.00073421,-0.00031800,0.00016445,0.00002199,-0.00
 010095,0.00007385,0.00039694,-0.00032671,-0.00025854,0.00022074,0.0002
 8031,-0.00000060,0.00051668,-0.00003552,-0.00071652,0.00023947,0.00010
 303,0.00105685,0.00010598,0.00047537,0.00010380,0.00015963,-0.00040138
 ,0.00001409,0.14770040,-0.14969338,-0.18066407,-0.00882918,0.00269734,
 0.02338833,-0.15821156,0.16171564,0.14498767,-0.00012814,-0.00002470,-
 0.00001722,0.00004641,0.00004014,-0.00003367,-0.00001772,0.00003766,-0
 .00006540,0.00003067,-0.00007921,0.00001800,-0.00000775,0.00019323,0.0
 0011791,-0.00008701,-0.00023003,-0.00000758,-0.00002791,0.00000805,0.0
 0007267,0.00000928,-0.00000656,0.00001970,0.00001103,0.00003355,0.0000
 0918,0.00006912,0.00016664,0.00018671,-0.00021133,-0.00016686,0.000333
 79,0.00005639,0.00005158,-0.00013120,0.00010283,0.00015127,-0.00022953
 ,-0.00185024,-0.00021139,0.00038864,0.00658187,0.00058411,0.00261732,0
 .00141526,-0.00040734,-0.00002897,-0.00057719,0.00052705,-0.00088613,-
 0.00230385,0.00053710,0.00122769,0.00003392,-0.00134732,0.00037327,0.0
 0015024,-0.00022798,-0.00023431,-0.00016017,-0.00003010,-0.00014206,-0
 .00007545,-0.00003792,-0.00002924,-0.00011945,-0.00012468,-0.00007247,
 -0.02317850,0.00269199,-0.01791363,-0.01902162,-0.00162203,-0.02185591
 ,-0.00830425,0.01008259,0.01890066,0.58624275,-0.00011549,-0.00007078,
 0.00001611,0.00000291,0.00006106,-0.00004596,0.00002905,-0.00002058,-0
 .00005393,0.00000226,-0.00005257,-0.00002261,-0.00006769,0.00074908,0.
 00014595,-0.00002724,-0.00010950,-0.00001412,-0.00000671,0.00002803,0.
 00000793,-0.00000215,0.00000813,0.00001845,0.00001577,0.00001060,0.000
 05214,-0.00004543,0.00011668,0.00006580,-0.00021207,0.00008735,0.00008
 275,0.00013508,-0.00007232,-0.00003652,0.00007205,-0.00003322,-0.00003
 643,-0.00158748,-0.00067959,0.00035616,0.00473902,-0.00309406,0.004076
 66,0.00026262,0.00063281,0.00018821,-0.00008557,-0.00007156,-0.0003433
 1,-0.00055289,0.00018682,0.00018561,-0.00038327,-0.00076853,0.00006650
 ,-0.00012915,-0.00034117,-0.00013076,0.00003528,0.00000748,0.00001252,
 -0.00001128,0.00008330,0.00004664,0.00002095,0.00005717,-0.00003148,0.
 00250054,-0.02074337,-0.00548543,-0.00120383,0.00239014,-0.00201413,0.
 00808028,-0.00861008,-0.01924568,-0.00255492,0.59558858,0.00002250,0.0
 0002026,-0.00024602,-0.00063662,-0.00003919,0.00040087,0.00032313,-0.0
 0015143,0.00000419,-0.00071761,-0.00006564,0.00044311,0.00118566,0.000
 44673,-0.00040041,-0.00063400,-0.00007573,0.00029697,0.00002024,-0.000
 01969,0.00004283,-0.00002586,0.00002375,-0.00001091,0.00006035,0.00012
 997,-0.00008237,0.00030850,-0.00000614,0.00004747,0.00141978,0.0001839
 8,-0.00087632,-0.00073575,0.00010854,0.00025029,-0.00049173,-0.0002697
 8,0.00049167,-0.00240244,-0.00078411,0.00054459,0.01008433,0.00104663,
 -0.00316020,-0.00051299,-0.00011786,0.00089565,-0.00057221,-0.00006605
 ,-0.00042358,0.00002407,0.00034258,0.00046627,0.00013283,-0.00031408,0
 .00026925,-0.00008900,-0.00022955,0.00016400,0.00016854,0.00008079,-0.
 00032644,-0.00006381,-0.00016448,0.00030896,-0.00028288,0.00037424,-0.
 00045901,-0.01276471,0.00660084,-0.20113734,0.02222184,-0.00001135,0.0
 1817238,-0.01222341,0.01079062,0.01741102,-0.00849732,0.00111890,0.545
 03299,0.00002787,-0.00001175,-0.00001365,-0.00008032,-0.00000630,0.000
 04819,0.00004369,-0.00003262,0.00001819,-0.00008846,0.00000881,0.00004
 124,0.00011842,0.00003186,-0.00006594,-0.00005377,0.00006182,0.0000000
 4,0.00001201,0.00000155,-0.00001478,-0.00000588,0.00000621,-0.00000443
 ,0.00000524,0.00000660,-0.00000391,0.00003960,-0.00002058,-0.00002908,
 0.00018982,0.00008299,-0.00018223,-0.00007978,-0.00001575,0.00006073,-
 0.00007622,-0.00008086,0.00011786,0.00011467,0.00000299,-0.00012208,-0
 .00018473,-0.00013924,-0.00049772,-0.00029776,0.00020613,0.00009524,0.
 00007444,-0.00013003,0.00012959,0.00043848,-0.00007184,-0.00019775,-0.
 00000959,0.00017060,-0.00008810,-0.00007009,0.00004859,0.00013150,0.00
 004918,-0.00000445,-0.00005224,0.00001827,-0.00003192,0.00003512,-0.00
 001448,0.00005540,-0.00000875,-0.00967843,0.01242471,-0.00105146,0.006
 58182,-0.00229740,0.00106400,0.00099985,-0.00004341,0.00422434,-0.1537
 4957,0.10177592,0.06879095,0.21171027,-0.00000212,0.00003305,0.0000044
 0,0.00007404,-0.00000938,-0.00003670,-0.00004470,0.00003262,-0.0000037
 5,0.00007123,0.00001368,-0.00003283,-0.00006935,-0.00015524,0.00006393
 ,0.00006491,-0.00004043,0.00003479,-0.00001134,-0.00000938,0.00000674,
 0.00000372,-0.00000836,-0.00000115,-0.00000969,-0.00001449,-0.00000938
 ,-0.00005940,-0.00002144,-0.00000099,-0.00013812,-0.00008624,0.0001389
 0,0.00005391,0.00002659,-0.00004254,0.00005762,0.00007670,-0.00009259,
 0.00009707,0.00004883,0.00009794,-0.00058504,0.00072384,-0.00007908,0.
 00018817,-0.00032204,-0.00014468,-0.00001175,0.00011644,0.00001261,-0.
 00017818,-0.00000343,0.00003733,0.00017226,0.00008669,-0.00002461,0.00
 004941,0.00003737,-0.00012844,-0.00003078,0.00001818,0.00013467,0.0000
 1404,0.00004233,-0.00004002,0.00002686,-0.00010615,0.00003455,0.014382
 85,-0.01683902,0.00015478,-0.00425401,0.00289394,-0.00080305,0.0003265
 4,0.00007246,-0.00626078,0.10024162,-0.19973110,-0.08603557,-0.1602934
 2,0.27836674,-0.00002213,0.00001735,0.00005224,0.00019514,0.00000751,-
 0.00012171,-0.00010251,0.00005822,-0.00001599,0.00021933,0.00001774,-0
 .00013217,-0.00033320,-0.00002978,0.00016059,0.00018233,-0.00003785,-0
 .00001677,-0.00001613,-0.00000101,-0.00000344,0.00000795,-0.00001092,0
 .00000395,-0.00001862,-0.00003944,0.00001955,-0.00013687,-0.00001023,-
 0.00000933,-0.00045123,-0.00009540,0.00031089,0.00022528,-0.00001222,-
 0.00009259,0.00016509,0.00011464,-0.00018494,0.00042147,0.00006109,0.0
 0003145,-0.00241203,-0.00076012,0.00103649,0.00019208,-0.00009435,-0.0
 0022916,0.00011508,0.00006685,0.00007537,-0.00009472,-0.00010075,-0.00
 009982,0.00000834,0.00010598,-0.00005253,0.00003702,-0.00002278,-0.000
 17511,-0.00004691,0.00001930,0.00020807,0.00002614,0.00009751,-0.00007
 909,0.00010740,-0.00014419,0.00011589,0.02436379,-0.03211648,-0.000008
 71,-0.00567656,0.00287913,-0.00229514,0.00356445,-0.00377723,-0.013759
 27,0.06970406,-0.08917994,-0.14213570,-0.08717010,0.10609011,0.1230968
 3,0.00002233,0.00000712,-0.00002490,-0.00006516,-0.00001240,0.00004231
 ,0.00002984,-0.00001743,0.00001002,-0.00006662,0.00001202,0.00003416,0
 .00011286,0.00004203,-0.00003652,-0.00004390,0.00002700,0.00004657,0.0
 0000462,-0.00000558,-0.00000906,-0.00000427,0.00000170,-0.00000558,0.0
 0000232,0.00000223,-0.00001097,0.00000845,-0.00003391,-0.00002607,0.00
 016182,0.00003890,-0.00013260,-0.00007510,0.00000522,0.00004481,-0.000
 05948,-0.00004488,0.00008083,0.00000499,-0.00005429,0.00000492,0.00001
 576,-0.00009885,-0.00037200,-0.00028163,0.00000510,0.00010975,0.000067
 95,-0.00008211,0.00014239,0.00036164,-0.00011721,-0.00020906,0.0000114
 0,0.00024941,-0.00006477,-0.00007063,0.00003905,0.00007514,0.00004023,
 0.00001337,0.00002696,0.00002994,-0.00000062,0.00002743,0.00000274,-0.
 00001848,-0.00001244,-0.00036047,-0.00585881,-0.00027016,0.00416578,0.
 00153625,0.00165454,0.00098609,-0.00001521,-0.00044257,-0.09137935,-0.
 05968244,0.03028828,0.01401594,0.02373820,-0.00649194,0.11100050,0.000
 03155,0.00003601,-0.00011604,-0.00022194,-0.00003807,0.00015094,0.0000
 9312,-0.00003931,0.00000545,-0.00023424,0.00000978,0.00013695,0.000433
 02,0.00020754,-0.00011235,-0.00022036,-0.00003185,0.00021257,-0.000000
 09,-0.00002493,0.00000793,-0.00001057,0.00000191,-0.00001179,0.0000133
 0,0.00002770,-0.00004436,0.00006145,-0.00007153,-0.00001228,0.00053128
 ,0.00003079,-0.00032069,-0.00027760,0.00006596,0.00009903,-0.00017820,
 -0.00007359,0.00017598,-0.00077799,-0.00020465,0.00017500,0.00291727,0
 .00016522,-0.00076239,-0.00041500,-0.00020272,0.00026427,-0.00004418,-
 0.00006488,0.00010684,0.00035281,-0.00014990,-0.00016615,0.00013143,0.
 00032418,-0.00005290,-0.00007628,-0.00001300,0.00015210,0.00007997,0.0
 0001433,0.00003110,0.00006456,-0.00001008,0.00008079,-0.00006627,-0.00
 004754,-0.00010184,-0.00825238,-0.02280846,-0.00126752,0.00509334,0.00
 379290,0.00259707,-0.00234587,0.00712881,0.00369866,-0.05936245,-0.268
 99683,0.10127307,0.01182338,-0.07885489,0.00542868,0.09693348,0.386217
 97,-0.00000121,-0.00001910,0.00014225,0.00030288,0.00002603,-0.0001909
 5,-0.00014297,0.00006318,0.00000736,0.00032697,0.00001287,-0.00018934,
 -0.00055889,-0.00043122,0.00013770,0.00030793,0.00007480,-0.00023898,-
 0.00000169,0.00001800,-0.00001915,0.00001377,-0.00000756,0.00000754,-0
 .00002570,-0.00005044,0.00004142,-0.00010078,0.00002935,-0.00002062,-0
 .00066191,-0.00007452,0.00040649,0.00034132,-0.00006137,-0.00011832,0.
 00022394,0.00011511,-0.00022552,0.00148449,0.00057906,-0.00024629,-0.0
 0554555,0.00015758,0.00022462,0.00026897,0.00014897,-0.00039559,0.0001
 9165,0.00003356,0.00008789,-0.00008004,-0.00004510,-0.00001181,-0.0000
 8927,-0.00002717,-0.00004036,0.00009281,0.00010971,-0.00011127,-0.0001
 0023,-0.00001136,0.00006337,-0.00004432,0.00002032,-0.00013006,0.00013
 171,-0.00002876,0.00016074,0.01090774,0.03319108,0.00150826,-0.0054781
 0,-0.00341443,-0.00341100,0.00137299,-0.00483289,-0.00290233,0.0317729
 6,0.10589063,-0.13674626,-0.00372204,-0.01138544,0.02017146,-0.0404491
 0,-0.12268053,0.11489090,0.00007168,0.00001024,0.00001785,0.00003107,-
 0.00002384,-0.00001445,-0.00002047,-0.00001006,0.00004249,0.00004295,0
 .00006141,-0.00004991,-0.00006799,-0.00008707,0.00000934,0.00009382,0.
 00013737,-0.00000333,0.00001239,-0.00000552,-0.00004561,-0.00000490,-0
 .00000011,-0.00001131,-0.00001388,-0.00004154,0.00000033,-0.00006577,-
 0.00010213,-0.00010890,-0.00000721,0.00007367,-0.00011061,0.00003477,-
 0.00003576,0.00005304,-0.00001282,-0.00005873,0.00008685,0.00102453,0.
 00019298,-0.00022542,-0.00420867,-0.00005497,-0.00034324,-0.00133559,0
 .00030379,0.00021501,0.00052352,-0.00045440,0.00069572,0.00067053,-0.0
 0105055,0.00011849,-0.00002612,0.00087411,-0.00036283,-0.00015347,0.00
 027322,0.00013490,0.00004979,0.00001789,0.00017616,0.00013017,0.000034
 31,-0.00004048,0.00005620,-0.00019592,0.00015389,-0.03253964,-0.007993
 69,0.00684034,-0.00197483,-0.00018095,-0.00992343,0.00875856,-0.002053
 46,-0.00359684,-0.28772902,-0.03869481,-0.08077493,-0.07079862,0.02556
 826,0.00188044,-0.03877342,-0.04314034,0.00238079,0.41817609,0.0000340
 7,0.00002488,-0.00002483,-0.00001643,-0.00002195,0.00002287,-0.0000032
 5,0.00000151,0.00001253,-0.00001552,0.00002537,0.00000202,0.00005002,-
 0.00005945,-0.00003064,-0.00000906,0.00001847,0.00005832,0.00000037,-0
 .00000947,-0.00000434,-0.00000192,-0.00000115,-0.00000531,-0.00000337,
 -0.00000521,-0.00001304,-0.00000802,-0.00004973,-0.00002152,0.00008071
 ,-0.00000426,-0.00005419,-0.00004154,0.00001507,0.00002019,-0.00002756
 ,-0.00000655,0.00003052,0.00030776,0.00009061,-0.00006967,-0.00103209,
 0.00025191,-0.00093729,-0.00067983,-0.00025867,0.00024226,0.00014519,-
 0.00006215,0.00033149,0.00009774,-0.00050141,0.00010496,0.00006386,0.0
 0056448,-0.00013954,-0.00000985,0.00006182,0.00003952,0.00001266,0.000
 00906,0.00006017,0.00003853,0.00000735,-0.00000334,-0.00000256,-0.0000
 5391,0.00002468,-0.00594667,-0.00066253,0.00111110,-0.00072558,0.00056
 992,-0.00170769,-0.00026358,0.00137826,0.00023374,-0.03758788,-0.07949
 003,-0.01447115,0.03838597,0.00711271,0.00445387,-0.05674212,-0.024414
 38,-0.00467745,0.06053981,0.09206956,-0.00000196,-0.00000608,0.0000579
 5,0.00015656,0.00000745,-0.00010141,-0.00007481,0.00003248,0.00000836,
 0.00016319,0.00002440,-0.00010760,-0.00026741,-0.00007143,0.00013877,0
 .00016081,0.00003180,-0.00006473,-0.00000481,0.00000413,-0.00002004,0.
 00000296,-0.00000665,0.00000091,-0.00001724,-0.00004392,0.00002056,-0.
 00009429,-0.00000799,-0.00002516,-0.00036231,-0.00002435,0.00019187,0.
 00019725,-0.00003662,-0.00005038,0.00012345,0.00005231,-0.00010212,0.0
 0052728,0.00016658,-0.00012596,-0.00254542,-0.00026886,0.00132708,0.00
 095908,-0.00006035,-0.00036573,0.00005686,0.00013325,0.00003764,0.0007
 2616,0.00065799,-0.00114839,-0.00005968,0.00009586,-0.00006916,-0.0000
 5284,0.00012899,-0.00004248,-0.00004840,0.00000844,0.00014419,0.000073
 97,0.00004921,-0.00008317,0.00005433,-0.00021586,0.00016535,-0.0357711
 6,-0.00842915,0.00410873,-0.00725763,-0.00031101,-0.01191924,0.0045907
 7,-0.00094670,-0.00278340,-0.08393091,-0.01537710,-0.11187194,0.017449
 51,0.00003068,0.01725183,0.01469881,0.00469940,0.01759370,0.08564680,0
 .01575033,0.09062574,0.00007960,0.00014096,-0.00070314,-0.00117445,-0.
 00017556,0.00074189,0.00079655,-0.00060276,0.00036455,-0.00278057,0.00
 059548,0.00163024,0.00656220,-0.00223987,0.00044442,-0.00114695,-0.000
 29620,0.00100475,-0.00002825,-0.00008930,0.00005675,-0.00020493,0.0000
 0586,-0.00001693,0.00007842,0.00001387,-0.00016037,0.00021566,-0.00031
 633,-0.00000112,0.00240144,0.00034104,-0.00158923,-0.00118580,0.000216
 53,0.00046101,-0.00080238,-0.00047378,0.00090228,-0.02145933,-0.003651
 09,0.02086160,-0.15990697,-0.00348458,0.06208613,-0.04013321,-0.013921
 49,0.02588555,-0.00571334,-0.00074262,-0.00644012,0.00176348,0.0012126
 5,0.00090940,0.00232411,0.00068682,0.00124709,-0.00503043,0.00336778,-
 0.00412549,0.00210012,0.00022934,0.00082751,0.00123474,-0.00030135,-0.
 00048463,0.00253373,-0.00080267,-0.00176897,-0.08564779,-0.02949263,0.
 02696604,-0.02018465,-0.04115899,0.00604548,0.01190738,0.01603758,0.00
 020503,-0.00582126,-0.01230931,-0.01362574,0.00074814,0.00055718,0.001
 55754,0.00013484,-0.00293619,0.00688088,0.00805635,0.00336013,0.004901
 08,0.31028355,-0.00024765,0.00003284,-0.00092122,-0.00120601,-0.000094
 60,0.00073140,0.00035407,-0.00009144,-0.00059899,-0.00000983,-0.000248
 79,0.00013663,0.00166365,0.01135793,-0.00066753,-0.00220283,-0.0009872
 1,0.00156923,-0.00007789,-0.00009963,0.00011221,0.00001018,0.00001487,
 -0.00003723,0.00013305,0.00011867,-0.00000180,-0.00006313,-0.00015750,
 0.00032296,0.00211279,0.00026798,-0.00127509,-0.00102453,0.00023506,0.
 00035689,-0.00062815,-0.00034867,0.00068725,-0.01074322,0.00444576,0.0
 1121802,0.00064524,-0.05247105,-0.00857701,-0.01701561,-0.00129593,0.0
 1016936,-0.00470111,0.00121960,-0.00249545,-0.00119404,0.00002852,-0.0
 0072657,0.00150114,0.00108833,0.00206164,0.00007462,-0.00630945,-0.000
 84412,-0.00068120,0.00012071,0.00036224,0.00126037,0.00061552,0.000678
 32,0.00022490,-0.00089639,-0.00008416,-0.03721560,-0.21587405,0.029421
 43,-0.00554453,-0.00765226,0.00539105,-0.00464511,-0.03619131,0.003952
 05,-0.01132520,-0.01712193,-0.01971910,-0.00191397,0.00649940,0.007014
 73,0.00013326,-0.00197650,0.00727709,0.00609682,0.00339986,0.00393275,
 0.08622951,0.31237163,0.00025291,-0.00015363,0.00049442,0.00097533,0.0
 0003000,-0.00059056,-0.00061357,0.00082307,-0.00014249,0.00299928,-0.0
 0022399,-0.00152300,-0.00616175,0.00129747,-0.00394090,0.00096226,0.00
 073155,-0.00056462,0.00005543,0.00005477,-0.00011212,0.00018768,-0.000
 03141,-0.00004726,-0.00014220,-0.00020442,0.00002449,-0.00016520,-0.00
 009733,-0.00013101,-0.00195954,-0.00023653,0.00116826,0.00102036,-0.00
 020120,-0.00032525,0.00065825,0.00032819,-0.00064443,0.04702010,0.0062
 2705,-0.03099543,0.05746711,-0.00608870,-0.09232193,-0.00557994,-0.001
 62672,0.00635681,-0.00101117,-0.00056139,0.00023852,0.00136698,-0.0001
 0849,0.00033621,-0.00010765,0.00068804,0.00110263,0.00130188,0.0024130
 9,-0.00025209,-0.00042079,-0.00045507,-0.00027620,0.00081942,-0.000697
 31,-0.00099785,0.00108975,-0.00005037,-0.00381536,0.02375070,0.0258632
 9,-0.07889988,0.00448400,0.00598904,0.01572689,-0.00096655,-0.00824307
 ,0.01528822,0.00833297,0.01968646,0.01263399,0.00101773,-0.00171984,-0
 .00312314,0.00127085,0.00635301,-0.01044586,-0.00284116,-0.00033858,-0
 .00279174,-0.13506348,-0.04944700,0.17857067\\-0.00000179,0.00000155,-
 0.00000169,-0.00000460,-0.00000152,0.00000075,0.00000249,0.00000104,0.
 00000284,0.00000312,0.00000065,0.00000106,0.00000260,-0.00000006,0.000
 00774,-0.00000072,0.00000492,-0.00000411,0.00000122,-0.00000225,-0.000
 00194,0.00000045,0.00000391,0.00000011,-0.00000152,0.00000353,0.000001
 79,-0.00000160,-0.00000377,0.00000194,0.00000757,0.00000737,0.00000159
 ,-0.00000223,-0.00000775,0.00000317,-0.00000754,0.00000369,-0.00000203
 ,0.00000230,0.00000419,-0.00001100,0.00001050,0.00000176,0.00000645,-0
 .00000925,-0.00000366,-0.00000253,0.00000158,-0.00000112,-0.00000014,0
 .00000244,-0.00000742,0.00000077,0.00000159,-0.00000084,0.00000349,-0.
 00000752,0.00001626,-0.00000402,-0.00000397,-0.00000290,-0.00000009,0.
 00000257,-0.00000287,-0.00000076,0.00000026,-0.00000061,0.00000447,-0.
 00000831,-0.00001151,0.00000866,0.00000993,0.00001569,-0.00000367,-0.0
 0000036,0.00000935,-0.00000600,0.00001288,0.00000604,-0.00000131,0.000
 00366,-0.00000613,0.00000187,0.00000091,-0.00000115,0.00000046,-0.0000
 1137,-0.00000526,0.00000349,-0.00000529,-0.00002114,-0.00001136\\\@
 The archive entry for this job was punched.


     ON THE SURVIVAL OF THE FITTEST -
 "STRONG REPRESENTATIVES FROM EACH PAST ERA THRIVE TODAY,
 SUCH AS PROGRAMMING IN THE THIRTY YEAR OLD LANGUAGE KNOWN
 AS FORTRAN, AND EVEN IN THE ANCIENT SCRIPT KNOWN AS DIRECT
 MACHINE CODE. SOME PEOPLE MIGHT LOOK ON SUCH RELICS AS LIVING
 FOSSILS; OTHERS WOULD POINT OUT THAT EVEN A VERY OLD SPECIES
 MIGHT STILL BE FILLING A PARTICULAR ECOLOGICAL NICHE."
     -- ALAN KAY, SCI.AM. SEPTEMBER 1984
 Job cpu time:       0 days  8 hours 48 minutes 38.4 seconds.
 Elapsed time:       0 days  0 hours 33 minutes 12.7 seconds.
 File lengths (MBytes):  RWF=    930 Int=      0 D2E=      0 Chk=     27 Scr=      1
 Normal termination of Gaussian 16 at Fri Dec 31 12:09:35 2021.
