 Entering Gaussian System, Link 0=/software/g16/g16
 Input=exo-dcpd.com
 Output=exo-dcpd.log
 Initial command:
 /software/g16/l1.exe "/scratch/Gau-996084.inp" -scrdir="/scratch/"
 Default CPUs for threads: 0-15
 Default is to use a total of  16 processors:
                               16 via shared-memory
                                1 via Linda
 Entering Link 1 = /software/g16/l1.exe PID=    996085.
  
 Copyright (c) 1988-2019, Gaussian, Inc.  All Rights Reserved.
  
 This is part of the Gaussian(R) 16 program.  It is based on
 the Gaussian(R) 09 system (copyright 2009, Gaussian, Inc.),
 the Gaussian(R) 03 system (copyright 2003, Gaussian, Inc.),
 the Gaussian(R) 98 system (copyright 1998, Gaussian, Inc.),
 the Gaussian(R) 94 system (copyright 1995, Gaussian, Inc.),
 the Gaussian 92(TM) system (copyright 1992, Gaussian, Inc.),
 the Gaussian 90(TM) system (copyright 1990, Gaussian, Inc.),
 the Gaussian 88(TM) system (copyright 1988, Gaussian, Inc.),
 the Gaussian 86(TM) system (copyright 1986, Carnegie Mellon
 University), and the Gaussian 82(TM) system (copyright 1983,
 Carnegie Mellon University). Gaussian is a federally registered
 trademark of Gaussian, Inc.
  
 This software contains proprietary and confidential information,
 including trade secrets, belonging to Gaussian, Inc.
  
 This software is provided under written license and may be
 used, copied, transmitted, or stored only in accord with that
 written license.
  
 The following legend is applicable only to US Government
 contracts under FAR:
  
                    RESTRICTED RIGHTS LEGEND
  
 Use, reproduction and disclosure by the US Government is
 subject to restrictions as set forth in subparagraphs (a)
 and (c) of the Commercial Computer Software - Restricted
 Rights clause in FAR 52.227-19.
  
 Gaussian, Inc.
 340 Quinnipiac St., Bldg. 40, Wallingford CT 06492
  
  
 ---------------------------------------------------------------
 Warning -- This program may not be used in any manner that
 competes with the business of Gaussian, Inc. or will provide
 assistance to any competitor of Gaussian, Inc.  The licensee
 of this program is prohibited from giving any competitor of
 Gaussian, Inc. access to this program.  By using this program,
 the user acknowledges that Gaussian, Inc. is engaged in the
 business of creating and licensing software in the field of
 computational chemistry and represents and warrants to the
 licensee that it is not a competitor of Gaussian, Inc. and that
 it will not use this program in any manner prohibited above.
 ---------------------------------------------------------------
  

 Cite this work as:
 Gaussian 16, Revision C.01,
 M. J. Frisch, G. W. Trucks, H. B. Schlegel, G. E. Scuseria, 
 M. A. Robb, J. R. Cheeseman, G. Scalmani, V. Barone, 
 G. A. Petersson, H. Nakatsuji, X. Li, M. Caricato, A. V. Marenich, 
 J. Bloino, B. G. Janesko, R. Gomperts, B. Mennucci, H. P. Hratchian, 
 J. V. Ortiz, A. F. Izmaylov, J. L. Sonnenberg, D. Williams-Young, 
 F. Ding, F. Lipparini, F. Egidi, J. Goings, B. Peng, A. Petrone, 
 T. Henderson, D. Ranasinghe, V. G. Zakrzewski, J. Gao, N. Rega, 
 G. Zheng, W. Liang, M. Hada, M. Ehara, K. Toyota, R. Fukuda, 
 J. Hasegawa, M. Ishida, T. Nakajima, Y. Honda, O. Kitao, H. Nakai, 
 T. Vreven, K. Throssell, J. A. Montgomery, Jr., J. E. Peralta, 
 F. Ogliaro, M. J. Bearpark, J. J. Heyd, E. N. Brothers, K. N. Kudin, 
 V. N. Staroverov, T. A. Keith, R. Kobayashi, J. Normand, 
 K. Raghavachari, A. P. Rendell, J. C. Burant, S. S. Iyengar, 
 J. Tomasi, M. Cossi, J. M. Millam, M. Klene, C. Adamo, R. Cammi, 
 J. W. Ochterski, R. L. Martin, K. Morokuma, O. Farkas, 
 J. B. Foresman, and D. J. Fox, Gaussian, Inc., Wallingford CT, 2019.
 
 ******************************************
 Gaussian 16:  ES64L-G16RevC.01  3-Jul-2019
                27-Dec-2021 
 ******************************************
 SetSPE:  set environment variable "MP_BIND" = "yes"
 SetSPE:  set environment variable "MP_BLIST" = "0,1,2,3,4,5,6,7,8,9,10,11,12,13,14,15"
 ----------------------------------------------------------------------
 #N M062X/def2svp OPT FREQ=NoRaman temperature=273.15 Integral(Grid=Ult
 raFine)
 ----------------------------------------------------------------------
 1/18=20,19=15,26=4,38=1,112=273150/1,3;
 2/9=110,12=2,17=6,18=5,40=1/2;
 3/5=43,7=101,11=2,25=1,30=1,71=1,74=-55,75=-5/1,2,3;
 4//1;
 5/5=2,38=5/2;
 6/7=2,8=2,9=2,10=2,28=1/1;
 7//1,2,3,16;
 1/18=20,19=15,26=4/3(2);
 2/9=110/2;
 99//99;
 2/9=110/2;
 3/5=43,7=101,11=2,25=1,30=1,71=1,74=-55,75=-5/1,2,3;
 4/5=5,16=3,69=1/1;
 5/5=2,38=5/2;
 7//1,2,3,16;
 1/18=20,19=15,26=4/3(-5);
 2/9=110/2;
 6/7=2,8=2,9=2,10=2,19=2,28=1/1;
 99/9=1/99;
 --------
 Exo-dcpd
 --------
 Symbolic Z-matrix:
 Charge =  0 Multiplicity = 1
 C
 C                    1    B1
 C                    2    B2       1    A1
 C                    1    B3       2    A2       3    D1       0
 H                    1    B4       4    A3       3    D2       0
 H                    4    B5       1    A4       2    D3       0
 C                    2    B6       1    A5       4    D4       0
 H                    7    B7       2    A6       1    D5       0
 H                    7    B8       2    A7       1    D6       0
 C                    2    B9       1    A8       4    D7       0
 H                    10   B10      2    A9       1    D8       0
 C                    10   B11      2    A10      1    D9       0
 H                    12   B12      10   A11      2    D10      0
 H                    2    B13      1    A12      4    D11      0
 H                    3    B14      2    A13      1    D12      0
 C                    12   B15      10   A14      2    D13      0
 H                    16   B16      12   A15      10   D14      0
 C                    10   B17      2    A16      1    D15      0
 H                    18   B18      10   A17      2    D16      0
 H                    18   B19      10   A18      2    D17      0
 C                    16   B20      12   A19      10   D18      0
 H                    21   B21      16   A20      12   D19      0
       Variables:
  B1                    1.5549                   
  B2                    2.19823                  
  B3                    1.36781                  
  B4                    1.07                     
  B5                    1.07                     
  B6                    1.51173                  
  B7                    1.07                     
  B8                    1.07                     
  B9                    1.55285                  
  B10                   1.07                     
  B11                   1.5505                   
  B12                   1.07                     
  B13                   1.07                     
  B14                   1.07                     
  B15                   1.54705                  
  B16                   1.07                     
  B17                   1.54547                  
  B18                   1.07                     
  B19                   1.07                     
  B20                   1.35979                  
  B21                   1.07                     
  A1                   73.23633                  
  A2                  106.40515                  
  A3                  126.74022                  
  A4                  127.61151                  
  A5                  100.46283                  
  A6                  115.24225                  
  A7                  113.52471                  
  A8                  102.43482                  
  A9                  104.57871                  
  A10                  99.23361                  
  A11                 114.10812                  
  A12                 114.67974                  
  A13                 160.04655                  
  A14                 102.63168                  
  A15                 125.00914                  
  A16                 122.20398                  
  A17                 112.1925                   
  A18                 110.21896                  
  A19                 110.03886                  
  A20                 125.41372                  
  D1                    2.58511                  
  D2                  178.33442                  
  D3                  175.40776                  
  D4                   37.83687                  
  D5                 -171.24179                  
  D6                   65.15574                  
  D7                  -70.58333                  
  D8                  -44.04086                  
  D9                   80.8018                   
  D10                -146.39177                  
  D11                 163.71007                  
  D12                 114.99007                  
  D13                  91.97628                  
  D14                -157.5012                   
  D15                -169.47469                  
  D16                  50.07429                  
  D17                 171.21761                  
  D18                  20.4699                   
  D19                -177.30397                  
 

 GradGradGradGradGradGradGradGradGradGradGradGradGradGradGradGradGradGrad
 Berny optimization.
 Initialization pass.
                           ----------------------------
                           !    Initial Parameters    !
                           ! (Angstroms and Degrees)  !
 --------------------------                            --------------------------
 ! Name  Definition              Value          Derivative Info.                !
 --------------------------------------------------------------------------------
 ! R1    R(1,2)                  1.5549         estimate D2E/DX2                !
 ! R2    R(1,4)                  1.3678         estimate D2E/DX2                !
 ! R3    R(1,5)                  1.07           estimate D2E/DX2                !
 ! R4    R(2,7)                  1.5117         estimate D2E/DX2                !
 ! R5    R(2,10)                 1.5529         estimate D2E/DX2                !
 ! R6    R(2,14)                 1.07           estimate D2E/DX2                !
 ! R7    R(3,4)                  1.5306         estimate D2E/DX2                !
 ! R8    R(3,7)                  1.5347         estimate D2E/DX2                !
 ! R9    R(3,12)                 1.521          estimate D2E/DX2                !
 ! R10   R(3,15)                 1.07           estimate D2E/DX2                !
 ! R11   R(4,6)                  1.07           estimate D2E/DX2                !
 ! R12   R(7,8)                  1.07           estimate D2E/DX2                !
 ! R13   R(7,9)                  1.07           estimate D2E/DX2                !
 ! R14   R(10,11)                1.07           estimate D2E/DX2                !
 ! R15   R(10,12)                1.5505         estimate D2E/DX2                !
 ! R16   R(10,18)                1.5455         estimate D2E/DX2                !
 ! R17   R(12,13)                1.07           estimate D2E/DX2                !
 ! R18   R(12,16)                1.5471         estimate D2E/DX2                !
 ! R19   R(16,17)                1.07           estimate D2E/DX2                !
 ! R20   R(16,21)                1.3598         estimate D2E/DX2                !
 ! R21   R(18,19)                1.07           estimate D2E/DX2                !
 ! R22   R(18,20)                1.07           estimate D2E/DX2                !
 ! R23   R(18,21)                1.5348         estimate D2E/DX2                !
 ! R24   R(21,22)                1.07           estimate D2E/DX2                !
 ! A1    A(2,1,4)              106.4051         estimate D2E/DX2                !
 ! A2    A(2,1,5)              126.8207         estimate D2E/DX2                !
 ! A3    A(4,1,5)              126.7402         estimate D2E/DX2                !
 ! A4    A(1,2,7)              100.4628         estimate D2E/DX2                !
 ! A5    A(1,2,10)             102.4348         estimate D2E/DX2                !
 ! A6    A(1,2,14)             114.6797         estimate D2E/DX2                !
 ! A7    A(7,2,10)             105.3276         estimate D2E/DX2                !
 ! A8    A(7,2,14)             116.6018         estimate D2E/DX2                !
 ! A9    A(10,2,14)            115.339          estimate D2E/DX2                !
 ! A10   A(4,3,7)              103.0672         estimate D2E/DX2                !
 ! A11   A(4,3,12)             111.1611         estimate D2E/DX2                !
 ! A12   A(4,3,15)             112.7548         estimate D2E/DX2                !
 ! A13   A(7,3,12)              96.9368         estimate D2E/DX2                !
 ! A14   A(7,3,15)             116.899          estimate D2E/DX2                !
 ! A15   A(12,3,15)            114.5376         estimate D2E/DX2                !
 ! A16   A(1,4,3)              104.7301         estimate D2E/DX2                !
 ! A17   A(1,4,6)              127.6115         estimate D2E/DX2                !
 ! A18   A(3,4,6)              127.6513         estimate D2E/DX2                !
 ! A19   A(2,7,3)               92.3675         estimate D2E/DX2                !
 ! A20   A(2,7,8)              115.2423         estimate D2E/DX2                !
 ! A21   A(2,7,9)              113.5247         estimate D2E/DX2                !
 ! A22   A(3,7,8)              114.7318         estimate D2E/DX2                !
 ! A23   A(3,7,9)              114.0343         estimate D2E/DX2                !
 ! A24   A(8,7,9)              106.784          estimate D2E/DX2                !
 ! A25   A(2,10,11)            104.5787         estimate D2E/DX2                !
 ! A26   A(2,10,12)             99.2336         estimate D2E/DX2                !
 ! A27   A(2,10,18)            122.204          estimate D2E/DX2                !
 ! A28   A(11,10,12)           120.3563         estimate D2E/DX2                !
 ! A29   A(11,10,18)           109.9152         estimate D2E/DX2                !
 ! A30   A(12,10,18)           101.3234         estimate D2E/DX2                !
 ! A31   A(3,12,10)            103.5086         estimate D2E/DX2                !
 ! A32   A(3,12,13)            118.3223         estimate D2E/DX2                !
 ! A33   A(3,12,16)            104.4041         estimate D2E/DX2                !
 ! A34   A(10,12,13)           114.1081         estimate D2E/DX2                !
 ! A35   A(10,12,16)           102.6317         estimate D2E/DX2                !
 ! A36   A(13,12,16)           112.1978         estimate D2E/DX2                !
 ! A37   A(12,16,17)           125.0091         estimate D2E/DX2                !
 ! A38   A(12,16,21)           110.0389         estimate D2E/DX2                !
 ! A39   A(17,16,21)           124.9183         estimate D2E/DX2                !
 ! A40   A(10,18,19)           112.1925         estimate D2E/DX2                !
 ! A41   A(10,18,20)           110.219          estimate D2E/DX2                !
 ! A42   A(10,18,21)           103.2545         estimate D2E/DX2                !
 ! A43   A(19,18,20)           108.5913         estimate D2E/DX2                !
 ! A44   A(19,18,21)           114.1763         estimate D2E/DX2                !
 ! A45   A(20,18,21)           108.26           estimate D2E/DX2                !
 ! A46   A(16,21,18)           109.1648         estimate D2E/DX2                !
 ! A47   A(16,21,22)           125.4137         estimate D2E/DX2                !
 ! A48   A(18,21,22)           125.4203         estimate D2E/DX2                !
 ! D1    D(4,1,2,7)             37.8369         estimate D2E/DX2                !
 ! D2    D(4,1,2,10)           -70.5833         estimate D2E/DX2                !
 ! D3    D(4,1,2,14)           163.7101         estimate D2E/DX2                !
 ! D4    D(5,1,2,7)           -144.1767         estimate D2E/DX2                !
 ! D5    D(5,1,2,10)           107.4031         estimate D2E/DX2                !
 ! D6    D(5,1,2,14)           -18.3035         estimate D2E/DX2                !
 ! D7    D(2,1,4,3)             -3.677          estimate D2E/DX2                !
 ! D8    D(2,1,4,6)            175.4078         estimate D2E/DX2                !
 ! D9    D(5,1,4,3)            178.3344         estimate D2E/DX2                !
 ! D10   D(5,1,4,6)             -2.5808         estimate D2E/DX2                !
 ! D11   D(1,2,7,3)            -52.3979         estimate D2E/DX2                !
 ! D12   D(1,2,7,8)           -171.2418         estimate D2E/DX2                !
 ! D13   D(1,2,7,9)             65.1557         estimate D2E/DX2                !
 ! D14   D(10,2,7,3)            53.7227         estimate D2E/DX2                !
 ! D15   D(10,2,7,8)           -65.1212         estimate D2E/DX2                !
 ! D16   D(10,2,7,9)           171.2764         estimate D2E/DX2                !
 ! D17   D(14,2,7,3)          -176.9641         estimate D2E/DX2                !
 ! D18   D(14,2,7,8)            64.192          estimate D2E/DX2                !
 ! D19   D(14,2,7,9)           -59.4105         estimate D2E/DX2                !
 ! D20   D(1,2,10,11)          -44.0409         estimate D2E/DX2                !
 ! D21   D(1,2,10,12)           80.8018         estimate D2E/DX2                !
 ! D22   D(1,2,10,18)         -169.4747         estimate D2E/DX2                !
 ! D23   D(7,2,10,11)         -148.7111         estimate D2E/DX2                !
 ! D24   D(7,2,10,12)          -23.8684         estimate D2E/DX2                !
 ! D25   D(7,2,10,18)           85.8551         estimate D2E/DX2                !
 ! D26   D(14,2,10,11)          81.2344         estimate D2E/DX2                !
 ! D27   D(14,2,10,12)        -153.9229         estimate D2E/DX2                !
 ! D28   D(14,2,10,18)         -44.1994         estimate D2E/DX2                !
 ! D29   D(7,3,4,1)            -31.2802         estimate D2E/DX2                !
 ! D30   D(7,3,4,6)            149.6355         estimate D2E/DX2                !
 ! D31   D(12,3,4,1)            71.5931         estimate D2E/DX2                !
 ! D32   D(12,3,4,6)          -107.4913         estimate D2E/DX2                !
 ! D33   D(15,3,4,1)          -158.2216         estimate D2E/DX2                !
 ! D34   D(15,3,4,6)            22.6941         estimate D2E/DX2                !
 ! D35   D(4,3,7,2)             51.7182         estimate D2E/DX2                !
 ! D36   D(4,3,7,8)            170.9902         estimate D2E/DX2                !
 ! D37   D(4,3,7,9)            -65.4012         estimate D2E/DX2                !
 ! D38   D(12,3,7,2)           -61.9575         estimate D2E/DX2                !
 ! D39   D(12,3,7,8)            57.3146         estimate D2E/DX2                !
 ! D40   D(12,3,7,9)          -179.0768         estimate D2E/DX2                !
 ! D41   D(15,3,7,2)           175.9811         estimate D2E/DX2                !
 ! D42   D(15,3,7,8)           -64.7468         estimate D2E/DX2                !
 ! D43   D(15,3,7,9)            58.8618         estimate D2E/DX2                !
 ! D44   D(4,3,12,10)          -56.6463         estimate D2E/DX2                !
 ! D45   D(4,3,12,13)           70.7036         estimate D2E/DX2                !
 ! D46   D(4,3,12,16)         -163.7382         estimate D2E/DX2                !
 ! D47   D(7,3,12,10)           50.291          estimate D2E/DX2                !
 ! D48   D(7,3,12,13)          177.6409         estimate D2E/DX2                !
 ! D49   D(7,3,12,16)          -56.8009         estimate D2E/DX2                !
 ! D50   D(15,3,12,10)         174.108          estimate D2E/DX2                !
 ! D51   D(15,3,12,13)         -58.542          estimate D2E/DX2                !
 ! D52   D(15,3,12,16)          67.0162         estimate D2E/DX2                !
 ! D53   D(2,10,12,3)          -16.4462         estimate D2E/DX2                !
 ! D54   D(2,10,12,13)        -146.3918         estimate D2E/DX2                !
 ! D55   D(2,10,12,16)          91.9763         estimate D2E/DX2                !
 ! D56   D(11,10,12,3)          96.5545         estimate D2E/DX2                !
 ! D57   D(11,10,12,13)        -33.3911         estimate D2E/DX2                !
 ! D58   D(11,10,12,16)       -155.023          estimate D2E/DX2                !
 ! D59   D(18,10,12,3)        -142.1223         estimate D2E/DX2                !
 ! D60   D(18,10,12,13)         87.9321         estimate D2E/DX2                !
 ! D61   D(18,10,12,16)        -33.6999         estimate D2E/DX2                !
 ! D62   D(2,10,18,19)          50.0743         estimate D2E/DX2                !
 ! D63   D(2,10,18,20)         171.2176         estimate D2E/DX2                !
 ! D64   D(2,10,18,21)         -73.3276         estimate D2E/DX2                !
 ! D65   D(11,10,18,19)        -72.9217         estimate D2E/DX2                !
 ! D66   D(11,10,18,20)         48.2216         estimate D2E/DX2                !
 ! D67   D(11,10,18,21)        163.6764         estimate D2E/DX2                !
 ! D68   D(12,10,18,19)        158.7081         estimate D2E/DX2                !
 ! D69   D(12,10,18,20)        -80.1485         estimate D2E/DX2                !
 ! D70   D(12,10,18,21)         35.3062         estimate D2E/DX2                !
 ! D71   D(3,12,16,17)         -49.7604         estimate D2E/DX2                !
 ! D72   D(3,12,16,21)         128.2107         estimate D2E/DX2                !
 ! D73   D(10,12,16,17)       -157.5012         estimate D2E/DX2                !
 ! D74   D(10,12,16,21)         20.4699         estimate D2E/DX2                !
 ! D75   D(13,12,16,17)         79.5735         estimate D2E/DX2                !
 ! D76   D(13,12,16,21)       -102.4554         estimate D2E/DX2                !
 ! D77   D(12,16,21,18)          2.3178         estimate D2E/DX2                !
 ! D78   D(12,16,21,22)       -177.304          estimate D2E/DX2                !
 ! D79   D(17,16,21,18)       -179.7088         estimate D2E/DX2                !
 ! D80   D(17,16,21,22)          0.6694         estimate D2E/DX2                !
 ! D81   D(10,18,21,16)        -24.3393         estimate D2E/DX2                !
 ! D82   D(10,18,21,22)        155.2825         estimate D2E/DX2                !
 ! D83   D(19,18,21,16)       -146.4198         estimate D2E/DX2                !
 ! D84   D(19,18,21,22)         33.202          estimate D2E/DX2                !
 ! D85   D(20,18,21,16)         92.508          estimate D2E/DX2                !
 ! D86   D(20,18,21,22)        -87.8702         estimate D2E/DX2                !
 --------------------------------------------------------------------------------
 Trust Radius=3.00D-01 FncErr=1.00D-07 GrdErr=1.00D-06 EigMax=2.50D+02 EigMin=1.00D-04
 Number of steps in this run=    132 maximum allowed number of steps=    132.
 GradGradGradGradGradGradGradGradGradGradGradGradGradGradGradGradGradGrad

                          Input orientation:                          
 ---------------------------------------------------------------------
 Center     Atomic      Atomic             Coordinates (Angstroms)
 Number     Number       Type             X           Y           Z
 ---------------------------------------------------------------------
      1          6           0        0.000000    0.000000    0.000000
      2          6           0        0.000000    0.000000    1.554898
      3          6           0        2.104811    0.000000    0.920874
      4          6           0        1.310789   -0.059181   -0.386307
      5          1           0       -0.856508    0.008544   -0.641265
      6          1           0        1.695151   -0.144468   -1.381240
      7          6           0        1.213985    0.858016    1.829424
      8          1           0        1.523616    0.896397    2.852925
      9          1           0        1.104241    1.870641    1.501635
     10          6           0        0.439095   -1.451463    1.889272
     11          1           0       -0.127378   -2.065079    1.220331
     12          6           0        1.970707   -1.296987    1.703948
     13          1           0        2.455398   -2.171909    1.323836
     14          1           0       -0.919980    0.314532    2.001672
     15          1           0        3.112328    0.330960    0.778490
     16          6           0        2.449431   -0.936638    3.130252
     17          1           0        3.361767   -0.427538    3.361251
     18          6           0        0.363182   -2.025499    3.322168
     19          1           0       -0.595162   -1.866880    3.770853
     20          1           0        0.564798   -3.076271    3.310751
     21          6           0        1.519858   -1.321719    4.044930
     22          1           0        1.581860   -1.154759    5.100004
 ---------------------------------------------------------------------
                    Distance matrix (angstroms):
                    1          2          3          4          5
     1  C    0.000000
     2  C    1.554898   0.000000
     3  C    2.297441   2.198230   0.000000
     4  C    1.367810   2.343064   1.530587   0.000000
     5  H    1.070000   2.357289   3.348098   2.183293   0.000000
     6  H    2.191400   3.393423   2.342738   1.070000   2.661192
     7  C    2.357274   1.511725   1.534674   2.400018   3.333593
     8  H    3.356205   2.193127   2.207745   3.383941   4.320028
     9  H    2.640749   2.172897   2.199482   2.707620   3.450212
    10  C    2.422581   1.552854   2.412291   2.806521   3.195908
    11  H    2.402079   2.095880   3.055633   2.945036   2.880466
    12  C    2.910206   2.363912   1.520974   2.517304   3.898407
    13  H    3.535352   3.286269   2.236623   2.949295   4.425463
    14  H    2.225305   1.070000   3.227447   3.289139   2.661348
    15  H    3.225239   3.224738   1.070000   2.180483   4.227448
    16  C    4.083563   3.059207   2.424336   3.799030   5.103621
    17  H    4.773078   3.840205   2.778158   4.287935   5.831307
    18  C    3.907857   2.712525   3.591954   4.303157   4.618850
    19  H    4.249563   2.958025   4.347122   4.917561   4.801281
    20  H    4.554504   3.586845   4.188865   4.829862   5.211010
    21  C    4.518669   3.202682   3.442214   4.612329   5.420069
    22  H    5.463130   4.050126   4.367158   5.601194   6.345162
                    6          7          8          9         10
     6  H    0.000000
     7  C    3.397773   0.000000
     8  H    4.363598   1.070000   0.000000
     9  H    3.566625   1.070000   1.717851   0.000000
    10  C    3.739274   2.436745   2.759938   3.410140   0.000000
    11  H    3.711945   3.273336   3.763175   4.133511   1.070000
    12  C    3.304938   2.287446   2.516143   3.290222   1.550498
    13  H    3.464958   3.313182   3.552582   4.266082   2.214552
    14  H    4.300429   2.208811   2.652236   2.601727   2.231245
    15  H    2.626567   2.232926   2.673389   2.631725   3.399566
    16  C    4.642202   2.537571   2.072212   3.513225   2.417959
    17  H    5.034775   2.934640   2.321637   3.719707   3.428871
    18  C    5.237793   3.356607   3.178722   4.363877   1.545468
    19  H    5.895448   3.803579   3.601043   4.691096   2.186917
    20  H    5.646942   4.253749   4.112302   5.294888   2.162499
    21  C    5.555176   3.123023   2.518120   4.102713   2.414900
    22  H    6.560492   3.857886   3.043024   4.725402   3.420927
                   11         12         13         14         15
    11  H    0.000000
    12  C    2.286004   0.000000
    13  H    2.587057   1.070000   0.000000
    14  H    2.627025   3.322906   4.246767   0.000000
    15  H    4.053631   2.193167   2.644488   4.213781   0.000000
    16  C    3.400166   1.547053   2.188395   3.767234   2.752640
    17  H    4.408993   2.331875   2.831147   4.553293   2.703367
    18  C    2.158689   2.394474   2.896919   2.977576   4.425043
    19  H    2.600628   3.343734   3.922608   2.827378   5.246925
    20  H    2.423112   2.779254   2.887918   3.926295   4.950907
    21  C    3.353257   2.384130   3.000402   3.578412   3.992110
    22  H    4.336132   3.421203   4.007132   4.244723   4.819251
                   16         17         18         19         20
    16  C    0.000000
    17  H    1.070000   0.000000
    18  C    2.361120   3.398017   0.000000
    19  H    3.247347   4.230457   1.070000   0.000000
    20  H    2.857000   3.852451   1.070000   1.737764   0.000000
    21  C    1.359790   2.158612   1.534794   2.201279   2.128288
    22  H    2.163372   2.592331   2.324664   2.648241   2.815679
                   21         22
    21  C    0.000000
    22  H    1.070000   0.000000
 Stoichiometry    C10H12
 Framework group  C1[X(C10H12)]
 Deg. of freedom    60
 Full point group                 C1      NOp   1
 Largest Abelian subgroup         C1      NOp   1
 Largest concise Abelian subgroup C1      NOp   1
                         Standard orientation:                         
 ---------------------------------------------------------------------
 Center     Atomic      Atomic             Coordinates (Angstroms)
 Number     Number       Type             X           Y           Z
 ---------------------------------------------------------------------
      1          6           0        2.040591    0.902925    0.049346
      2          6           0        0.653177    0.860826    0.750072
      3          6           0        0.949914   -1.105212   -0.187401
      4          6           0        2.192144   -0.301914   -0.580178
      5          1           0        2.725944    1.724457    0.032723
      6          1           0        2.993859   -0.608655   -1.218976
      7          6           0        0.624599   -0.576933    1.216278
      8          1           0       -0.311609   -0.909201    1.613786
      9          1           0        1.369577   -0.802756    1.950384
     10          6           0       -0.329786    0.922670   -0.450475
     11          1           0        0.073798    1.679405   -1.090297
     12          6           0       -0.293273   -0.567012   -0.878912
     13          1           0       -0.394893   -0.721283   -1.932845
     14          1           0        0.508292    1.610539    1.499632
     15          1           0        1.091510   -2.161168   -0.286438
     16          6           0       -1.471094   -1.177010   -0.082662
     17          1           0       -1.573363   -2.212871    0.165195
     18          6           0       -1.847198    1.147065   -0.261849
     19          1           0       -2.056395    1.984930    0.369909
     20          1           0       -2.317765    1.308245   -1.209208
     21          6           0       -2.335191   -0.197335    0.294965
     22          1           0       -3.212248   -0.340067    0.891034
 ---------------------------------------------------------------------
 Rotational constants (GHZ):           2.9383773           1.3808637           1.2109450
 Standard basis: def2SVP (5D, 7F)
 There are   210 symmetry adapted cartesian basis functions of A   symmetry.
 There are   200 symmetry adapted basis functions of A   symmetry.
   200 basis functions,   334 primitive gaussians,   210 cartesian basis functions
    36 alpha electrons       36 beta electrons
       nuclear repulsion energy       537.0642031376 Hartrees.
 NAtoms=   22 NActive=   22 NUniq=   22 SFac= 1.00D+00 NAtFMM=   60 NAOKFM=F Big=F
 Integral buffers will be    131072 words long.
 Raffenetti 2 integral format.
 Two-electron integral symmetry is turned on.
 One-electron integrals computed using PRISM.
   1 Symmetry operations used in ECPInt.
 ECPInt:  NShTT=    4656 NPrTT=   16456 LenC2=    4636 LenP2D=   13473.
 LDataN:  DoStor=T MaxTD1= 4 Len=   56
 NBasis=   200 RedAO= T EigKep=  3.75D-04  NBF=   200
 NBsUse=   200 1.00D-06 EigRej= -1.00D+00 NBFU=   200
 ExpMin= 1.22D-01 ExpMax= 1.24D+03 ExpMxC= 1.86D+02 IAcc=3 IRadAn=         5 AccDes= 0.00D+00
 Harris functional with IExCor= 1009 and IRadAn=       5 diagonalized for initial guess.
 HarFok:  IExCor= 1009 AccDes= 0.00D+00 IRadAn=         5 IDoV= 1 UseB2=F ITyADJ=14
 ICtDFT=  3500011 ScaDFX=  1.000000  1.000000  1.000000  1.000000
 FoFCou: FMM=F IPFlag=           0 FMFlag=      100000 FMFlg1=           0
         NFxFlg=           0 DoJE=T BraDBF=F KetDBF=T FulRan=T
         wScrn=  0.000000 ICntrl=       500 IOpCl=  0 I1Cent=   200000004 NGrid=           0
         NMat0=    1 NMatS0=      1 NMatT0=    0 NMatD0=    1 NMtDS0=    0 NMtDT0=    0
 Petite list used in FoFCou.
 Requested convergence on RMS density matrix=1.00D-08 within 128 cycles.
 Requested convergence on MAX density matrix=1.00D-06.
 Requested convergence on             energy=1.00D-06.
 No special actions if energy rises.
 Integral accuracy reduced to 1.0D-05 until final iterations.
 Initial convergence to 1.0D-05 achieved.  Increase integral accuracy.
 SCF Done:  E(RM062X) =  -387.732258181     A.U. after   14 cycles
            NFock= 14  Conv=0.68D-08     -V/T= 2.0108

 **********************************************************************

            Population analysis using the SCF Density.

 **********************************************************************

 Orbital symmetries:
       Occupied  (A) (A) (A) (A) (A) (A) (A) (A) (A) (A) (A) (A)
                 (A) (A) (A) (A) (A) (A) (A) (A) (A) (A) (A) (A)
                 (A) (A) (A) (A) (A) (A) (A) (A) (A) (A) (A) (A)
       Virtual   (A) (A) (A) (A) (A) (A) (A) (A) (A) (A) (A) (A)
                 (A) (A) (A) (A) (A) (A) (A) (A) (A) (A) (A) (A)
                 (A) (A) (A) (A) (A) (A) (A) (A) (A) (A) (A) (A)
                 (A) (A) (A) (A) (A) (A) (A) (A) (A) (A) (A) (A)
                 (A) (A) (A) (A) (A) (A) (A) (A) (A) (A) (A) (A)
                 (A) (A) (A) (A) (A) (A) (A) (A) (A) (A) (A) (A)
                 (A) (A) (A) (A) (A) (A) (A) (A) (A) (A) (A) (A)
                 (A) (A) (A) (A) (A) (A) (A) (A) (A) (A) (A) (A)
                 (A) (A) (A) (A) (A) (A) (A) (A) (A) (A) (A) (A)
                 (A) (A) (A) (A) (A) (A) (A) (A) (A) (A) (A) (A)
                 (A) (A) (A) (A) (A) (A) (A) (A) (A) (A) (A) (A)
                 (A) (A) (A) (A) (A) (A) (A) (A) (A) (A) (A) (A)
                 (A) (A) (A) (A) (A) (A) (A) (A) (A) (A) (A) (A)
                 (A) (A) (A) (A) (A) (A) (A) (A)
 The electronic state is 1-A.
 Alpha  occ. eigenvalues --  -10.55028 -10.55014 -10.54816 -10.54734 -10.54707
 Alpha  occ. eigenvalues --  -10.54683 -10.54559 -10.54290 -10.54189 -10.52860
 Alpha  occ. eigenvalues --   -0.99457  -0.90343  -0.82312  -0.79574  -0.77635
 Alpha  occ. eigenvalues --   -0.74432  -0.64402  -0.62629  -0.61160  -0.58963
 Alpha  occ. eigenvalues --   -0.57528  -0.56311  -0.54934  -0.48304  -0.45890
 Alpha  occ. eigenvalues --   -0.44587  -0.44302  -0.42582  -0.41500  -0.39226
 Alpha  occ. eigenvalues --   -0.39024  -0.38453  -0.36549  -0.35752  -0.29643
 Alpha  occ. eigenvalues --   -0.27973
 Alpha virt. eigenvalues --    0.04677   0.05513   0.10703   0.12790   0.13912
 Alpha virt. eigenvalues --    0.14280   0.15693   0.16770   0.17376   0.17856
 Alpha virt. eigenvalues --    0.18382   0.19354   0.19997   0.21018   0.21480
 Alpha virt. eigenvalues --    0.23013   0.24423   0.25421   0.27923   0.28568
 Alpha virt. eigenvalues --    0.30812   0.32315   0.34583   0.36302   0.39071
 Alpha virt. eigenvalues --    0.41119   0.45903   0.47361   0.49881   0.51808
 Alpha virt. eigenvalues --    0.52729   0.53995   0.55123   0.57071   0.58217
 Alpha virt. eigenvalues --    0.59398   0.63018   0.63576   0.64768   0.66450
 Alpha virt. eigenvalues --    0.66747   0.67031   0.68133   0.68717   0.70366
 Alpha virt. eigenvalues --    0.71260   0.71790   0.72143   0.72634   0.72688
 Alpha virt. eigenvalues --    0.74063   0.74544   0.74998   0.75182   0.76576
 Alpha virt. eigenvalues --    0.77176   0.77378   0.77644   0.78901   0.79829
 Alpha virt. eigenvalues --    0.81050   0.82852   0.86702   0.87953   0.89301
 Alpha virt. eigenvalues --    0.89718   0.96025   1.00952   1.02187   1.04457
 Alpha virt. eigenvalues --    1.09924   1.12662   1.13925   1.17824   1.19752
 Alpha virt. eigenvalues --    1.25391   1.28151   1.30256   1.33860   1.38772
 Alpha virt. eigenvalues --    1.41145   1.45644   1.47279   1.49596   1.58652
 Alpha virt. eigenvalues --    1.62987   1.63536   1.66675   1.67985   1.69192
 Alpha virt. eigenvalues --    1.70530   1.71552   1.74052   1.74887   1.77473
 Alpha virt. eigenvalues --    1.78233   1.78971   1.80029   1.81846   1.83338
 Alpha virt. eigenvalues --    1.84963   1.86007   1.89015   1.90179   1.92168
 Alpha virt. eigenvalues --    1.93998   1.94449   1.96392   1.97460   1.98873
 Alpha virt. eigenvalues --    2.00198   2.00465   2.01831   2.04146   2.04915
 Alpha virt. eigenvalues --    2.05929   2.06546   2.08528   2.10323   2.12922
 Alpha virt. eigenvalues --    2.13845   2.14907   2.16801   2.17629   2.19990
 Alpha virt. eigenvalues --    2.21127   2.23584   2.27184   2.27280   2.28599
 Alpha virt. eigenvalues --    2.32118   2.35986   2.39512   2.44246   2.46787
 Alpha virt. eigenvalues --    2.48314   2.49144   2.50697   2.52167   2.55191
 Alpha virt. eigenvalues --    2.57617   2.62779   2.64746   2.66503   2.68565
 Alpha virt. eigenvalues --    2.72244   2.75005   2.75793   2.78047   2.82804
 Alpha virt. eigenvalues --    2.84533   2.86964   2.92013   2.95053   2.98537
 Alpha virt. eigenvalues --    2.99700   3.02318   3.06434   3.08040   3.12841
 Alpha virt. eigenvalues --    3.14128   3.21387   3.35130   3.40039
          Condensed to atoms (all electrons):
               1          2          3          4          5          6
     1  C    5.095395   0.250597  -0.007878   0.483010   0.448790  -0.066261
     2  C    0.250597   5.260438  -0.120778  -0.028729  -0.059480   0.013224
     3  C   -0.007878  -0.120778   5.317558   0.256245   0.011244  -0.066285
     4  C    0.483010  -0.028729   0.256245   5.046179  -0.066440   0.456595
     5  H    0.448790  -0.059480   0.011244  -0.066440   0.655453  -0.007416
     6  H   -0.066261   0.013224  -0.066285   0.456595  -0.007416   0.653651
     7  C   -0.079239   0.354111   0.310878  -0.068826   0.007259   0.006587
     8  H    0.007123  -0.002265  -0.016814   0.006793  -0.000268  -0.000164
     9  H   -0.000218  -0.032520  -0.019341  -0.003466   0.000699   0.000282
    10  C   -0.045081   0.300705  -0.102282  -0.032512  -0.000685  -0.001739
    11  H    0.003436  -0.041183  -0.008548  -0.002124   0.003878  -0.000132
    12  C   -0.057466  -0.097721   0.246831  -0.048803   0.000962   0.004890
    13  H   -0.001133   0.008118  -0.015356  -0.002722   0.000036   0.000830
    14  H   -0.037890   0.390209   0.007894   0.011889  -0.004901  -0.000229
    15  H    0.012066   0.005271   0.404763  -0.040480  -0.000318  -0.005480
    16  C    0.005605  -0.028918  -0.094219   0.012734  -0.000019  -0.000379
    17  H   -0.000188   0.001724   0.010108   0.000276  -0.000001   0.000003
    18  C    0.005986  -0.047574   0.022481   0.002420  -0.000319   0.000081
    19  H    0.000396  -0.012385   0.000003  -0.000050  -0.000004  -0.000001
    20  H   -0.000302   0.008007  -0.000816  -0.000078   0.000011  -0.000004
    21  C    0.000182  -0.001773  -0.009653  -0.001263   0.000042   0.000000
    22  H    0.000022   0.000620  -0.000491   0.000023  -0.000000  -0.000000
               7          8          9         10         11         12
     1  C   -0.079239   0.007123  -0.000218  -0.045081   0.003436  -0.057466
     2  C    0.354111  -0.002265  -0.032520   0.300705  -0.041183  -0.097721
     3  C    0.310878  -0.016814  -0.019341  -0.102282  -0.008548   0.246831
     4  C   -0.068826   0.006793  -0.003466  -0.032512  -0.002124  -0.048803
     5  H    0.007259  -0.000268   0.000699  -0.000685   0.003878   0.000962
     6  H    0.006587  -0.000164   0.000282  -0.001739  -0.000132   0.004890
     7  C    4.851330   0.388387   0.377826  -0.116819   0.012686  -0.042012
     8  H    0.388387   0.626397  -0.027739  -0.008665  -0.000498  -0.019124
     9  H    0.377826  -0.027739   0.673258   0.012895  -0.000359   0.010610
    10  C   -0.116819  -0.008665   0.012895   5.155626   0.354397   0.327149
    11  H    0.012686  -0.000498  -0.000359   0.354397   0.685579   0.003185
    12  C   -0.042012  -0.019124   0.010610   0.327149   0.003185   5.368250
    13  H    0.009029   0.001004  -0.000351  -0.018719  -0.005863   0.349852
    14  H   -0.022058  -0.003174  -0.004638  -0.032982   0.000850   0.008492
    15  H   -0.025255  -0.002947  -0.004321   0.013628  -0.000256  -0.040893
    16  C   -0.043830   0.015727   0.000323  -0.073559   0.007972   0.241425
    17  H   -0.009733   0.002538   0.000023   0.006523  -0.000194  -0.072460
    18  C   -0.008176  -0.000001  -0.000548   0.388217  -0.027792  -0.149222
    19  H    0.000175  -0.000164  -0.000041  -0.015372  -0.001065   0.011174
    20  H   -0.000455   0.000033   0.000029  -0.010768  -0.007699   0.003144
    21  C   -0.001753  -0.011202   0.000946  -0.044075   0.007095  -0.021914
    22  H   -0.000090   0.000060   0.000009   0.004230  -0.000301   0.014308
              13         14         15         16         17         18
     1  C   -0.001133  -0.037890   0.012066   0.005605  -0.000188   0.005986
     2  C    0.008118   0.390209   0.005271  -0.028918   0.001724  -0.047574
     3  C   -0.015356   0.007894   0.404763  -0.094219   0.010108   0.022481
     4  C   -0.002722   0.011889  -0.040480   0.012734   0.000276   0.002420
     5  H    0.000036  -0.004901  -0.000318  -0.000019  -0.000001  -0.000319
     6  H    0.000830  -0.000229  -0.005480  -0.000379   0.000003   0.000081
     7  C    0.009029  -0.022058  -0.025255  -0.043830  -0.009733  -0.008176
     8  H    0.001004  -0.003174  -0.002947   0.015727   0.002538  -0.000001
     9  H   -0.000351  -0.004638  -0.004321   0.000323   0.000023  -0.000548
    10  C   -0.018719  -0.032982   0.013628  -0.073559   0.006523   0.388217
    11  H   -0.005863   0.000850  -0.000256   0.007972  -0.000194  -0.027792
    12  C    0.349852   0.008492  -0.040893   0.241425  -0.072460  -0.149222
    13  H    0.657215  -0.000315  -0.003478  -0.010603   0.000480   0.008096
    14  H   -0.000315   0.679926  -0.000437   0.001450   0.000021  -0.000802
    15  H   -0.003478  -0.000437   0.682887  -0.007015   0.001787  -0.000594
    16  C   -0.010603   0.001450  -0.007015   5.094131   0.448967  -0.023570
    17  H    0.000480   0.000021   0.001787   0.448967   0.642719   0.012641
    18  C    0.008096  -0.000802  -0.000594  -0.023570   0.012641   4.698001
    19  H   -0.000576   0.003696   0.000026   0.005535  -0.000285   0.375634
    20  H    0.003065  -0.000122  -0.000004  -0.015689  -0.000425   0.357360
    21  C   -0.006421  -0.002782   0.000977   0.551594  -0.057950   0.301581
    22  H   -0.000344  -0.000066   0.000021  -0.060139  -0.008623  -0.054003
              19         20         21         22
     1  C    0.000396  -0.000302   0.000182   0.000022
     2  C   -0.012385   0.008007  -0.001773   0.000620
     3  C    0.000003  -0.000816  -0.009653  -0.000491
     4  C   -0.000050  -0.000078  -0.001263   0.000023
     5  H   -0.000004   0.000011   0.000042  -0.000000
     6  H   -0.000001  -0.000004   0.000000  -0.000000
     7  C    0.000175  -0.000455  -0.001753  -0.000090
     8  H   -0.000164   0.000033  -0.011202   0.000060
     9  H   -0.000041   0.000029   0.000946   0.000009
    10  C   -0.015372  -0.010768  -0.044075   0.004230
    11  H   -0.001065  -0.007699   0.007095  -0.000301
    12  C    0.011174   0.003144  -0.021914   0.014308
    13  H   -0.000576   0.003065  -0.006421  -0.000344
    14  H    0.003696  -0.000122  -0.002782  -0.000066
    15  H    0.000026  -0.000004   0.000977   0.000021
    16  C    0.005535  -0.015689   0.551594  -0.060139
    17  H   -0.000285  -0.000425  -0.057950  -0.008623
    18  C    0.375634   0.357360   0.301581  -0.054003
    19  H    0.669792  -0.028151  -0.024632  -0.003707
    20  H   -0.028151   0.662505  -0.010427   0.002728
    21  C   -0.024632  -0.010427   5.001536   0.436659
    22  H   -0.003707   0.002728   0.436659   0.657502
 Mulliken charges:
               1
     1  C   -0.016953
     2  C   -0.119696
     3  C   -0.125544
     4  C    0.019329
     5  H    0.011478
     6  H    0.011948
     7  C    0.099977
     8  H    0.044963
     9  H    0.016644
    10  C   -0.060110
    11  H    0.016936
    12  C   -0.040659
    13  H    0.028157
    14  H    0.005968
    15  H    0.010052
    16  C   -0.027524
    17  H    0.022048
    18  C    0.140104
    19  H    0.020001
    20  H    0.038062
    21  C   -0.106765
    22  H    0.011582
 Sum of Mulliken charges =  -0.00000
 Mulliken charges with hydrogens summed into heavy atoms:
               1
     1  C   -0.005475
     2  C   -0.113728
     3  C   -0.115492
     4  C    0.031277
     7  C    0.161585
    10  C   -0.043174
    12  C   -0.012501
    16  C   -0.005476
    18  C    0.198167
    21  C   -0.095183
 Electronic spatial extent (au):  <R**2>=           1138.9906
 Charge=              0.0000 electrons
 Dipole moment (field-independent basis, Debye):
    X=             -0.1032    Y=              0.0362    Z=              0.0039  Tot=              0.1094
 Quadrupole moment (field-independent basis, Debye-Ang):
   XX=            -60.7941   YY=            -58.2540   ZZ=            -60.7535
   XY=              0.0532   XZ=             -1.9843   YZ=              0.2745
 Traceless Quadrupole moment (field-independent basis, Debye-Ang):
   XX=             -0.8602   YY=              1.6798   ZZ=             -0.8196
   XY=              0.0532   XZ=             -1.9843   YZ=              0.2745
 Octapole moment (field-independent basis, Debye-Ang**2):
  XXX=              1.0441  YYY=             -1.2481  ZZZ=             -0.4170  XYY=              1.3171
  XXY=              2.8753  XXZ=             -0.3212  XZZ=             -0.9444  YZZ=             -0.1798
  YYZ=              1.3581  XYZ=              3.1891
 Hexadecapole moment (field-independent basis, Debye-Ang**3):
 XXXX=           -922.5192 YYYY=           -384.6285 ZZZZ=           -250.0498 XXXY=              0.5339
 XXXZ=            -32.1326 YYYX=              7.5614 YYYZ=              0.5376 ZZZX=              1.4420
 ZZZY=              1.3495 XXYY=           -214.5563 XXZZ=           -195.0480 YYZZ=           -108.4477
 XXYZ=             -0.5900 YYXZ=             -2.9010 ZZXY=             -4.6126
 N-N= 5.370642031376D+02 E-N=-1.970416706149D+03  KE= 3.835928382942D+02
   1 Symmetry operations used in ECPInt.
 ECPInt:  NShTT=    4656 NPrTT=   16456 LenC2=    4636 LenP2D=   13473.
 LDataN:  DoStor=T MaxTD1= 5 Len=  102
 Calling FoFJK, ICntrl=      2127 FMM=F ISym2X=0 I1Cent= 0 IOpClX= 0 NMat=1 NMatS=1 NMatT=0.
 ***** Axes restored to original set *****
 -------------------------------------------------------------------
 Center     Atomic                   Forces (Hartrees/Bohr)
 Number     Number              X              Y              Z
 -------------------------------------------------------------------
      1        6           0.043537340    0.002255544    0.008307916
      2        6          -0.010233441   -0.001720350   -0.017705839
      3        6           0.001431709    0.006563439   -0.020011752
      4        6          -0.041597458    0.007016020    0.038057913
      5        1          -0.013853633   -0.003626612   -0.006908163
      6        1           0.006717876   -0.001255135   -0.012342819
      7        6          -0.001001582    0.006648226   -0.019050330
      8        1           0.002234258    0.002002386    0.011380435
      9        1          -0.004262668    0.017814433   -0.013155825
     10        6           0.015178390    0.000413704    0.026225723
     11        1           0.001368470   -0.019486938   -0.014409220
     12        6           0.002013306    0.015361917    0.018486929
     13        1           0.012024162   -0.014634457   -0.011389692
     14        1          -0.018079702    0.004341837    0.008635304
     15        1           0.020532287    0.005515110    0.000918015
     16        6          -0.039374410   -0.049322720    0.017758788
     17        1           0.015067526    0.006529758   -0.000291722
     18        6           0.011787676    0.038113129    0.002228406
     19        1          -0.019090529    0.002415797    0.011385625
     20        1           0.000598308   -0.023135353   -0.002643920
     21        6           0.014528143   -0.002528722   -0.041085734
     22        1           0.000473972    0.000718988    0.015609964
 -------------------------------------------------------------------
 Cartesian Forces:  Max     0.049322720 RMS     0.017572184

 GradGradGradGradGradGradGradGradGradGradGradGradGradGradGradGradGradGrad
 Berny optimization.
 FormGI is forming the generalized inverse of G from B-inverse, IUseBI=4.
 Internal  Forces:  Max     0.030863529 RMS     0.008508877
 Search for a local minimum.
 Step number   1 out of a maximum of  132
 All quantities printed in internal units (Hartrees-Bohrs-Radians)
 Mixed Optimization -- RFO/linear search
 Second derivative matrix not updated -- first step.
 ITU=  0
     Eigenvalues ---    0.00516   0.00747   0.00841   0.00887   0.01308
     Eigenvalues ---    0.01435   0.01592   0.01809   0.02444   0.03072
     Eigenvalues ---    0.03457   0.03756   0.04166   0.04302   0.04751
     Eigenvalues ---    0.04911   0.05068   0.05371   0.05602   0.05734
     Eigenvalues ---    0.05906   0.06545   0.06920   0.07458   0.07976
     Eigenvalues ---    0.08427   0.08861   0.09700   0.10772   0.11958
     Eigenvalues ---    0.15953   0.15981   0.15996   0.15999   0.16038
     Eigenvalues ---    0.18493   0.22307   0.23158   0.24470   0.25722
     Eigenvalues ---    0.25895   0.26390   0.27168   0.28305   0.28766
     Eigenvalues ---    0.28949   0.37230   0.37230   0.37230   0.37230
     Eigenvalues ---    0.37230   0.37230   0.37230   0.37230   0.37230
     Eigenvalues ---    0.37230   0.37230   0.37230   0.45791   0.49079
 RFO step:  Lambda=-4.95790537D-02 EMin= 5.16465288D-03
 Linear search not attempted -- first point.
 Maximum step size (   0.300) exceeded in Quadratic search.
    -- Step size scaled by   0.907
 Iteration  1 RMS(Cart)=  0.08918973 RMS(Int)=  0.00305723
 Iteration  2 RMS(Cart)=  0.00396225 RMS(Int)=  0.00061089
 Iteration  3 RMS(Cart)=  0.00000575 RMS(Int)=  0.00061087
 Iteration  4 RMS(Cart)=  0.00000000 RMS(Int)=  0.00061087
 Variable       Old X    -DE/DX   Delta X   Delta X   Delta X     New X
                                 (Linear)    (Quad)   (Total)
    R1        2.93833  -0.01184   0.00000  -0.04133  -0.04135   2.89698
    R2        2.58479  -0.02605   0.00000  -0.04619  -0.04573   2.53905
    R3        2.02201   0.01520   0.00000   0.03266   0.03266   2.05467
    R4        2.85675   0.01021   0.00000   0.03678   0.03680   2.89354
    R5        2.93447   0.02232   0.00000   0.05795   0.05802   2.99248
    R6        2.02201   0.02043   0.00000   0.04389   0.04389   2.06590
    R7        2.89239  -0.00750   0.00000  -0.01606  -0.01577   2.87662
    R8        2.90011   0.00842   0.00000   0.02745   0.02696   2.92707
    R9        2.87422   0.03086   0.00000   0.08419   0.08414   2.95837
   R10        2.02201   0.02092   0.00000   0.04495   0.04495   2.06695
   R11        2.02201   0.01399   0.00000   0.03006   0.03006   2.05207
   R12        2.02201   0.01160   0.00000   0.02493   0.02493   2.04694
   R13        2.02201   0.02133   0.00000   0.04583   0.04583   2.06783
   R14        2.02201   0.01946   0.00000   0.04181   0.04181   2.06382
   R15        2.93002   0.00610   0.00000   0.02117   0.02024   2.95025
   R16        2.92051   0.00044   0.00000   0.00087   0.00068   2.92119
   R17        2.02201   0.02146   0.00000   0.04611   0.04611   2.06812
   R18        2.92351  -0.00666   0.00000  -0.01718  -0.01703   2.90648
   R19        2.02201   0.01589   0.00000   0.03415   0.03415   2.05615
   R20        2.56963  -0.02417   0.00000  -0.04199  -0.04137   2.52826
   R21        2.02201   0.02223   0.00000   0.04777   0.04777   2.06978
   R22        2.02201   0.02286   0.00000   0.04912   0.04912   2.07113
   R23        2.90034  -0.01281   0.00000  -0.03979  -0.03954   2.86080
   R24        2.02201   0.01553   0.00000   0.03338   0.03338   2.05538
    A1        1.85712   0.00447   0.00000   0.00658   0.00596   1.86308
    A2        2.21344  -0.00497   0.00000  -0.01517  -0.01487   2.19857
    A3        2.21203   0.00046   0.00000   0.00817   0.00843   2.22047
    A4        1.75341  -0.00681   0.00000  -0.03888  -0.03877   1.71464
    A5        1.78782  -0.00575   0.00000  -0.02666  -0.02572   1.76211
    A6        2.00154   0.00297   0.00000  -0.00121  -0.00101   2.00053
    A7        1.83831   0.00884   0.00000   0.04275   0.04172   1.88003
    A8        2.03509   0.00045   0.00000   0.01546   0.01484   2.04992
    A9        2.01305  -0.00071   0.00000   0.00174   0.00070   2.01375
   A10        1.79886  -0.01155   0.00000  -0.06910  -0.06830   1.73056
   A11        1.94013  -0.00894   0.00000  -0.04539  -0.04395   1.89618
   A12        1.96794   0.00835   0.00000   0.02381   0.02374   1.99168
   A13        1.69187   0.01202   0.00000   0.07089   0.06914   1.76101
   A14        2.04027  -0.00128   0.00000   0.00945   0.00863   2.04890
   A15        1.99906  -0.00007   0.00000   0.00570   0.00459   2.00365
   A16        1.82788   0.00961   0.00000   0.03644   0.03602   1.86391
   A17        2.22724  -0.00297   0.00000  -0.01044  -0.01035   2.21689
   A18        2.22794  -0.00665   0.00000  -0.02637  -0.02630   2.20164
   A19        1.61212  -0.00272   0.00000   0.00490   0.00338   1.61550
   A20        2.01136  -0.00188   0.00000  -0.01616  -0.01569   1.99566
   A21        1.98138   0.00206   0.00000   0.00150   0.00187   1.98325
   A22        2.00245  -0.00121   0.00000  -0.00852  -0.00807   1.99437
   A23        1.99027   0.00240   0.00000   0.00288   0.00326   1.99353
   A24        1.86373   0.00103   0.00000   0.01303   0.01276   1.87649
   A25        1.82524  -0.00608   0.00000  -0.01936  -0.01915   1.80609
   A26        1.73195   0.00219   0.00000   0.01874   0.01773   1.74968
   A27        2.13286   0.00835   0.00000   0.02323   0.02315   2.15601
   A28        2.10061  -0.00217   0.00000  -0.03995  -0.03916   2.06146
   A29        1.91838  -0.00005   0.00000  -0.01084  -0.01048   1.90790
   A30        1.76843  -0.00134   0.00000   0.02915   0.02742   1.79585
   A31        1.80657  -0.00505   0.00000  -0.01120  -0.01131   1.79526
   A32        2.06511  -0.00249   0.00000  -0.02540  -0.02518   2.03993
   A33        1.82219   0.01817   0.00000   0.11245   0.11311   1.93530
   A34        1.99156   0.00367   0.00000   0.00627   0.00556   1.99712
   A35        1.79126  -0.00607   0.00000  -0.01514  -0.01700   1.77426
   A36        1.95822  -0.00758   0.00000  -0.05608  -0.05556   1.90266
   A37        2.18182  -0.00875   0.00000  -0.03741  -0.03724   2.14458
   A38        1.92054   0.00973   0.00000   0.04006   0.03922   1.95976
   A39        2.18024  -0.00107   0.00000  -0.00376  -0.00364   2.17660
   A40        1.95813   0.00168   0.00000   0.02440   0.02393   1.98206
   A41        1.92368  -0.00299   0.00000  -0.03295  -0.03295   1.89073
   A42        1.80213   0.00143   0.00000   0.01265   0.01097   1.81311
   A43        1.89528  -0.00060   0.00000  -0.00916  -0.00875   1.88653
   A44        1.99275   0.00509   0.00000   0.03259   0.03254   2.02529
   A45        1.88949  -0.00499   0.00000  -0.03050  -0.03077   1.85872
   A46        1.90529   0.00236   0.00000   0.00757   0.00706   1.91235
   A47        2.18888   0.00003   0.00000   0.00139   0.00164   2.19052
   A48        2.18900  -0.00238   0.00000  -0.00893  -0.00869   2.18031
    D1        0.66038   0.00257   0.00000   0.00691   0.00680   0.66717
    D2       -1.23191  -0.00325   0.00000  -0.01977  -0.01998  -1.25189
    D3        2.85728   0.00002   0.00000  -0.00192  -0.00207   2.85521
    D4       -2.51636   0.00164   0.00000  -0.00520  -0.00500  -2.52136
    D5        1.87454  -0.00417   0.00000  -0.03188  -0.03178   1.84276
    D6       -0.31946  -0.00091   0.00000  -0.01403  -0.01387  -0.33333
    D7       -0.06418   0.00100   0.00000   0.01876   0.01920  -0.04497
    D8        3.06144  -0.00045   0.00000  -0.00489  -0.00467   3.05677
    D9        3.11252   0.00206   0.00000   0.03147   0.03181  -3.13885
   D10       -0.04504   0.00061   0.00000   0.00782   0.00793  -0.03711
   D11       -0.91452  -0.00341   0.00000  -0.04262  -0.04236  -0.95687
   D12       -2.98873   0.00008   0.00000  -0.03064  -0.03029  -3.01903
   D13        1.13718  -0.00154   0.00000  -0.03647  -0.03643   1.10076
   D14        0.93764  -0.00948   0.00000  -0.07277  -0.07313   0.86451
   D15       -1.13658  -0.00599   0.00000  -0.06078  -0.06106  -1.19764
   D16        2.98934  -0.00761   0.00000  -0.06661  -0.06720   2.92214
   D17       -3.08861  -0.00239   0.00000  -0.02132  -0.02099  -3.10960
   D18        1.12036   0.00110   0.00000  -0.00933  -0.00893   1.11143
   D19       -1.03691  -0.00052   0.00000  -0.01517  -0.01506  -1.05197
   D20       -0.76866   0.00074   0.00000   0.02633   0.02551  -0.74315
   D21        1.41026  -0.00302   0.00000  -0.01692  -0.01719   1.39306
   D22       -2.95789   0.00023   0.00000   0.04232   0.04123  -2.91667
   D23       -2.59550   0.00740   0.00000   0.06457   0.06470  -2.53080
   D24       -0.41658   0.00364   0.00000   0.02132   0.02199  -0.39459
   D25        1.49845   0.00688   0.00000   0.08057   0.08041   1.57887
   D26        1.41781  -0.00018   0.00000   0.00624   0.00613   1.42394
   D27       -2.68646  -0.00394   0.00000  -0.03701  -0.03657  -2.72303
   D28       -0.77143  -0.00069   0.00000   0.02223   0.02185  -0.74958
   D29       -0.54594  -0.00463   0.00000  -0.03978  -0.04018  -0.58612
   D30        2.61163  -0.00322   0.00000  -0.01631  -0.01676   2.59488
   D31        1.24953   0.00072   0.00000  -0.00625  -0.00549   1.24405
   D32       -1.87608   0.00213   0.00000   0.01722   0.01793  -1.85814
   D33       -2.76149  -0.00001   0.00000  -0.01762  -0.01750  -2.77899
   D34        0.39609   0.00139   0.00000   0.00585   0.00592   0.40201
   D35        0.90265   0.00160   0.00000   0.03771   0.03676   0.93941
   D36        2.98434  -0.00242   0.00000   0.01934   0.01831   3.00265
   D37       -1.14147   0.00003   0.00000   0.03267   0.03195  -1.10951
   D38       -1.08136   0.01003   0.00000   0.07998   0.08088  -1.00048
   D39        1.00033   0.00601   0.00000   0.06160   0.06244   1.06276
   D40       -3.12548   0.00847   0.00000   0.07494   0.07608  -3.04940
   D41        3.07145   0.00260   0.00000   0.02087   0.02065   3.09210
   D42       -1.13005  -0.00142   0.00000   0.00250   0.00220  -1.12785
   D43        1.02733   0.00103   0.00000   0.01583   0.01584   1.04317
   D44       -0.98866   0.00450   0.00000  -0.00319  -0.00299  -0.99166
   D45        1.23401   0.00330   0.00000  -0.02256  -0.02224   1.21177
   D46       -2.85777   0.00681   0.00000  -0.02008  -0.01877  -2.87654
   D47        0.87774  -0.00509   0.00000  -0.05901  -0.06042   0.81732
   D48        3.10042  -0.00629   0.00000  -0.07838  -0.07967   3.02074
   D49       -0.99136  -0.00278   0.00000  -0.07591  -0.07620  -1.06756
   D50        3.03876   0.00094   0.00000  -0.00048  -0.00073   3.03803
   D51       -1.02175  -0.00026   0.00000  -0.01985  -0.01998  -1.04173
   D52        1.16965   0.00325   0.00000  -0.01737  -0.01651   1.15314
   D53       -0.28704   0.00390   0.00000   0.03352   0.03325  -0.25379
   D54       -2.55502   0.00855   0.00000   0.07086   0.07054  -2.48448
   D55        1.60529   0.01986   0.00000   0.14600   0.14567   1.75096
   D56        1.68519  -0.00299   0.00000   0.00586   0.00565   1.69085
   D57       -0.58278   0.00167   0.00000   0.04320   0.04295  -0.53984
   D58       -2.70566   0.01297   0.00000   0.11834   0.11808  -2.58758
   D59       -2.48050  -0.00542   0.00000  -0.00831  -0.00933  -2.48983
   D60        1.53470  -0.00077   0.00000   0.02903   0.02796   1.56267
   D61       -0.58817   0.01054   0.00000   0.10417   0.10309  -0.48508
   D62        0.87396  -0.00490   0.00000  -0.07729  -0.07712   0.79684
   D63        2.98831  -0.00662   0.00000  -0.09549  -0.09550   2.89281
   D64       -1.27981  -0.01292   0.00000  -0.13840  -0.13910  -1.41891
   D65       -1.27272  -0.00306   0.00000  -0.05806  -0.05818  -1.33090
   D66        0.84163  -0.00478   0.00000  -0.07625  -0.07655   0.76507
   D67        2.85669  -0.01108   0.00000  -0.11917  -0.12015   2.73654
   D68        2.76998   0.00040   0.00000  -0.02258  -0.02261   2.74737
   D69       -1.39886  -0.00132   0.00000  -0.04077  -0.04098  -1.43984
   D70        0.61621  -0.00762   0.00000  -0.08369  -0.08458   0.53163
   D71       -0.86848  -0.00462   0.00000  -0.02700  -0.02693  -0.89541
   D72        2.23770  -0.00728   0.00000  -0.06038  -0.06048   2.17722
   D73       -2.74891  -0.00286   0.00000  -0.04543  -0.04511  -2.79402
   D74        0.35727  -0.00552   0.00000  -0.07880  -0.07866   0.27861
   D75        1.38882   0.00058   0.00000  -0.01363  -0.01461   1.37420
   D76       -1.78818  -0.00208   0.00000  -0.04700  -0.04817  -1.83635
   D77        0.04045   0.00084   0.00000   0.02065   0.02130   0.06175
   D78       -3.09454   0.00028   0.00000   0.01666   0.01726  -3.07728
   D79       -3.13651  -0.00201   0.00000  -0.01351  -0.01379   3.13289
   D80        0.01168  -0.00256   0.00000  -0.01751  -0.01783  -0.00615
   D81       -0.42480   0.00299   0.00000   0.04188   0.04242  -0.38238
   D82        2.71019   0.00355   0.00000   0.04593   0.04648   2.75667
   D83       -2.55551  -0.00290   0.00000  -0.01494  -0.01528  -2.57079
   D84        0.57948  -0.00234   0.00000  -0.01089  -0.01123   0.56826
   D85        1.61457  -0.00186   0.00000  -0.00257  -0.00251   1.61205
   D86       -1.53362  -0.00130   0.00000   0.00148   0.00154  -1.53208
         Item               Value     Threshold  Converged?
 Maximum Force            0.030864     0.000450     NO 
 RMS     Force            0.008509     0.000300     NO 
 Maximum Displacement     0.437852     0.001800     NO 
 RMS     Displacement     0.088645     0.001200     NO 
 Predicted change in Energy=-3.229515D-02
 GradGradGradGradGradGradGradGradGradGradGradGradGradGradGradGradGradGrad

                          Input orientation:                          
 ---------------------------------------------------------------------
 Center     Atomic      Atomic             Coordinates (Angstroms)
 Number     Number       Type             X           Y           Z
 ---------------------------------------------------------------------
      1          6           0        0.007994   -0.032173    0.015225
      2          6           0       -0.018270    0.042766    1.546183
      3          6           0        2.120103    0.070478    0.927836
      4          6           0        1.301054   -0.054615   -0.349163
      5          1           0       -0.860092   -0.102232   -0.635703
      6          1           0        1.695271   -0.178664   -1.353355
      7          6           0        1.171584    0.986788    1.740176
      8          1           0        1.465651    1.128098    2.773068
      9          1           0        1.020967    1.978131    1.302068
     10          6           0        0.458649   -1.418354    1.927397
     11          1           0       -0.088462   -2.055121    1.228871
     12          6           0        2.000222   -1.267145    1.732316
     13          1           0        2.490796   -2.147185    1.305020
     14          1           0       -0.978276    0.348041    1.970849
     15          1           0        3.144233    0.420369    0.769407
     16          6           0        2.480029   -1.080209    3.181598
     17          1           0        3.441384   -0.636906    3.432943
     18          6           0        0.347430   -2.008445    3.351829
     19          1           0       -0.624208   -1.830308    3.824932
     20          1           0        0.501974   -3.091679    3.289224
     21          6           0        1.551908   -1.443402    4.074153
     22          1           0        1.642048   -1.347534    5.153826
 ---------------------------------------------------------------------
                    Distance matrix (angstroms):
                    1          2          3          4          5
     1  C    0.000000
     2  C    1.533016   0.000000
     3  C    2.303129   2.226154   0.000000
     4  C    1.343609   2.311370   1.522241   0.000000
     5  H    1.087285   2.343142   3.369874   2.180579   0.000000
     6  H    2.177470   3.375288   2.333749   1.085909   2.655325
     7  C    2.316825   1.531197   1.548938   2.338080   3.310359
     8  H    3.328166   2.210252   2.225253   3.342787   4.306102
     9  H    2.592952   2.210259   2.233225   2.633832   3.408996
    10  C    2.404369   1.583554   2.444621   2.784269   3.168712
    11  H    2.361051   2.122909   3.080025   2.902235   2.808171
    12  C    2.905604   2.413466   1.565501   2.508310   3.891778
    13  H    3.507300   3.339079   2.279848   2.920729   4.379119
    14  H    2.223006   1.093227   3.280986   3.277183   2.647796
    15  H    3.257235   3.278320   1.093784   2.207740   4.275753
    16  C    4.151537   3.190165   2.555987   3.861100   5.165717
    17  H    4.882077   3.998878   2.919202   4.384564   5.944953
    18  C    3.892788   2.757093   3.652401   4.292341   4.581721
    19  H    4.259910   3.011356   4.420112   4.927756   4.789483
    20  H    4.508178   3.624030   4.265411   4.806261   5.118307
    21  C    4.566195   3.326378   3.537512   4.642993   5.458867
    22  H    5.550273   4.207692   4.483111   5.663109   6.428851
                    6          7          8          9         10
     6  H    0.000000
     7  C    3.347007   0.000000
     8  H    4.334480   1.083194   0.000000
     9  H    3.486793   1.094251   1.756172   0.000000
    10  C    3.718790   2.515559   2.865943   3.499049   0.000000
    11  H    3.656595   3.332020   3.864284   4.183696   1.092126
    12  C    3.286206   2.401440   2.665730   3.416997   1.561208
    13  H    3.402189   3.428041   3.732769   4.379342   2.246813
    14  H    4.298325   2.254574   2.687903   2.664851   2.277452
    15  H    2.639024   2.270367   2.707983   2.686747   3.454591
    16  C    4.689822   2.839402   2.464240   3.874911   2.402778
    17  H    5.115422   3.264022   2.730238   4.151803   3.431333
    18  C    5.225278   3.499726   3.379835   4.532986   1.545828
    19  H    5.909532   3.937906   3.771749   4.855476   2.223269
    20  H    5.609203   4.413822   4.359084   5.470020   2.157885
    21  C    5.574761   3.390858   2.883206   4.435453   2.409234
    22  H    6.611542   4.162139   3.439168   5.126580   3.437338
                   11         12         13         14         15
    11  H    0.000000
    12  C    2.288441   0.000000
    13  H    2.582023   1.094402   0.000000
    14  H    2.667862   3.396641   4.324805   0.000000
    15  H    4.097496   2.254696   2.702997   4.294621   0.000000
    16  C    3.370569   1.538044   2.158726   3.932643   2.917458
    17  H    4.396485   2.316524   2.777160   4.758281   2.881068
    18  C    2.167747   2.429829   2.966933   3.036055   4.515545
    19  H    2.660281   3.403502   4.019156   2.882393   5.348170
    20  H    2.380781   2.828009   2.963873   3.970003   5.066111
    21  C    3.340755   2.390869   3.007477   3.746330   4.114667
    22  H    4.347483   3.441145   4.021582   4.457848   4.960359
                   16         17         18         19         20
    16  C    0.000000
    17  H    1.088070   0.000000
    18  C    2.332076   3.385300   0.000000
    19  H    3.257731   4.255221   1.095280   0.000000
    20  H    2.823171   3.832323   1.095993   1.773789   0.000000
    21  C    1.337898   2.152140   1.513868   2.224250   2.106014
    22  H    2.159481   2.589216   2.315174   2.671132   2.796167
                   21         22
    21  C    0.000000
    22  H    1.087662   0.000000
 Stoichiometry    C10H12
 Framework group  C1[X(C10H12)]
 Deg. of freedom    60
 Full point group                 C1      NOp   1
 Largest Abelian subgroup         C1      NOp   1
 Largest concise Abelian subgroup C1      NOp   1
                         Standard orientation:                         
 ---------------------------------------------------------------------
 Center     Atomic      Atomic             Coordinates (Angstroms)
 Number     Number       Type             X           Y           Z
 ---------------------------------------------------------------------
      1          6           0        2.017278    0.912074   -0.089972
      2          6           0        0.716605    0.899066    0.721333
      3          6           0        0.977480   -1.142646   -0.126673
      4          6           0        2.148473   -0.310869   -0.630792
      5          1           0        2.672957    1.767742   -0.231769
      6          1           0        2.915163   -0.639452   -1.326074
      7          6           0        0.822866   -0.521163    1.283668
      8          1           0       -0.055169   -0.854571    1.823301
      9          1           0        1.687608   -0.670560    1.937339
     10          6           0       -0.361478    0.878787   -0.438396
     11          1           0        0.028393    1.598855   -1.161060
     12          6           0       -0.331674   -0.635037   -0.818946
     13          1           0       -0.434271   -0.834510   -1.890113
     14          1           0        0.618568    1.718830    1.437937
     15          1           0        1.138467   -2.222907   -0.185694
     16          6           0       -1.578147   -1.163540   -0.089173
     17          1           0       -1.723557   -2.216126    0.144953
     18          6           0       -1.866533    1.147484   -0.209929
     19          1           0       -2.064454    2.016006    0.427358
     20          1           0       -2.336569    1.325804   -1.183822
     21          6           0       -2.400600   -0.178331    0.288854
     22          1           0       -3.312751   -0.304061    0.867802
 ---------------------------------------------------------------------
 Rotational constants (GHZ):           2.8936611           1.3315384           1.1717417
 Standard basis: def2SVP (5D, 7F)
 There are   210 symmetry adapted cartesian basis functions of A   symmetry.
 There are   200 symmetry adapted basis functions of A   symmetry.
   200 basis functions,   334 primitive gaussians,   210 cartesian basis functions
    36 alpha electrons       36 beta electrons
       nuclear repulsion energy       531.1425201194 Hartrees.
 NAtoms=   22 NActive=   22 NUniq=   22 SFac= 1.00D+00 NAtFMM=   60 NAOKFM=F Big=F
 Integral buffers will be    131072 words long.
 Raffenetti 2 integral format.
 Two-electron integral symmetry is turned on.
 One-electron integrals computed using PRISM.
   1 Symmetry operations used in ECPInt.
 ECPInt:  NShTT=    4656 NPrTT=   16456 LenC2=    4636 LenP2D=   13407.
 LDataN:  DoStor=T MaxTD1= 4 Len=   56
 NBasis=   200 RedAO= T EigKep=  4.28D-04  NBF=   200
 NBsUse=   200 1.00D-06 EigRej= -1.00D+00 NBFU=   200
 Initial guess from the checkpoint file:  "axMeCyhex.chk"
 B after Tr=     0.000000    0.000000   -0.000000
         Rot=    0.999694    0.018736   -0.016181   -0.000147 Ang=   2.84 deg.
 ExpMin= 1.22D-01 ExpMax= 1.24D+03 ExpMxC= 1.86D+02 IAcc=3 IRadAn=         5 AccDes= 0.00D+00
 Harris functional with IExCor= 1009 and IRadAn=       5 diagonalized for initial guess.
 HarFok:  IExCor= 1009 AccDes= 0.00D+00 IRadAn=         5 IDoV= 1 UseB2=F ITyADJ=14
 ICtDFT=  3500011 ScaDFX=  1.000000  1.000000  1.000000  1.000000
 FoFCou: FMM=F IPFlag=           0 FMFlag=      100000 FMFlg1=           0
         NFxFlg=           0 DoJE=T BraDBF=F KetDBF=T FulRan=T
         wScrn=  0.000000 ICntrl=       500 IOpCl=  0 I1Cent=   200000004 NGrid=           0
         NMat0=    1 NMatS0=      1 NMatT0=    0 NMatD0=    1 NMtDS0=    0 NMtDT0=    0
 Petite list used in FoFCou.
 Requested convergence on RMS density matrix=1.00D-08 within 128 cycles.
 Requested convergence on MAX density matrix=1.00D-06.
 Requested convergence on             energy=1.00D-06.
 No special actions if energy rises.
 Integral accuracy reduced to 1.0D-05 until final iterations.
 Initial convergence to 1.0D-05 achieved.  Increase integral accuracy.
 SCF Done:  E(RM062X) =  -387.755326424     A.U. after   13 cycles
            NFock= 13  Conv=0.66D-08     -V/T= 2.0118
   1 Symmetry operations used in ECPInt.
 ECPInt:  NShTT=    4656 NPrTT=   16456 LenC2=    4636 LenP2D=   13407.
 LDataN:  DoStor=T MaxTD1= 5 Len=  102
 Calling FoFJK, ICntrl=      2127 FMM=F ISym2X=0 I1Cent= 0 IOpClX= 0 NMat=1 NMatS=1 NMatT=0.
 ***** Axes restored to original set *****
 -------------------------------------------------------------------
 Center     Atomic                   Forces (Hartrees/Bohr)
 Number     Number              X              Y              Z
 -------------------------------------------------------------------
      1        6           0.008129110    0.003367976   -0.000256003
      2        6          -0.011892439   -0.002026269   -0.007905821
      3        6           0.003784734    0.002598762   -0.006691961
      4        6          -0.009298267   -0.000199539    0.005317946
      5        1          -0.002305182   -0.003226064   -0.000448372
      6        1           0.001921069   -0.000600408   -0.002240286
      7        6           0.005906971   -0.009468532    0.003915371
      8        1           0.003460404   -0.001208440    0.009837184
      9        1          -0.001281791   -0.000889163   -0.005814685
     10        6           0.004752492    0.002060121    0.009351265
     11        1           0.007104316   -0.008452415   -0.002967339
     12        6          -0.001943646    0.011884238    0.012564776
     13        1           0.001935399    0.000088534   -0.009029855
     14        1          -0.002344711   -0.000209446    0.002912504
     15        1           0.003261783    0.000360909    0.002298161
     16        6          -0.008472305   -0.003877964   -0.003982397
     17        1           0.004276060   -0.000766234   -0.000801533
     18        6          -0.000946436    0.013418240    0.000893990
     19        1          -0.001933812    0.001372691    0.003217799
     20        1          -0.005286400   -0.005902400   -0.001610970
     21        6           0.000373480    0.003852481   -0.011002012
     22        1           0.000799173   -0.002177078    0.002442237
 -------------------------------------------------------------------
 Cartesian Forces:  Max     0.013418240 RMS     0.005468084

 GradGradGradGradGradGradGradGradGradGradGradGradGradGradGradGradGradGrad
 Berny optimization.
 Using GEDIIS/GDIIS optimizer.
 FormGI is forming the generalized inverse of G from B-inverse, IUseBI=4.
 Internal  Forces:  Max     0.010161923 RMS     0.002534467
 Search for a local minimum.
 Step number   2 out of a maximum of  132
 All quantities printed in internal units (Hartrees-Bohrs-Radians)
 Mixed Optimization -- RFO/linear search
 Update second derivatives using D2CorX and points    1    2
 DE= -2.31D-02 DEPred=-3.23D-02 R= 7.14D-01
 TightC=F SS=  1.41D+00  RLast= 5.53D-01 DXNew= 5.0454D-01 1.6598D+00
 Trust test= 7.14D-01 RLast= 5.53D-01 DXMaxT set to 5.05D-01
 ITU=  1  0
 Use linear search instead of GDIIS.
     Eigenvalues ---    0.00509   0.00749   0.00855   0.00903   0.01334
     Eigenvalues ---    0.01451   0.01606   0.01973   0.02403   0.02991
     Eigenvalues ---    0.03348   0.03742   0.04114   0.04541   0.04652
     Eigenvalues ---    0.05097   0.05234   0.05371   0.05744   0.05862
     Eigenvalues ---    0.06165   0.06444   0.06853   0.07825   0.08017
     Eigenvalues ---    0.08263   0.09202   0.09767   0.10836   0.12325
     Eigenvalues ---    0.15889   0.15950   0.15966   0.15999   0.16424
     Eigenvalues ---    0.20236   0.22633   0.23069   0.24939   0.25683
     Eigenvalues ---    0.25792   0.26212   0.27019   0.28043   0.28801
     Eigenvalues ---    0.31951   0.33942   0.37230   0.37230   0.37230
     Eigenvalues ---    0.37230   0.37230   0.37230   0.37230   0.37230
     Eigenvalues ---    0.37230   0.37230   0.38245   0.45465   0.49007
 RFO step:  Lambda=-1.35907973D-02 EMin= 5.08950851D-03
 Quartic linear search produced a step of  0.13208.
 Iteration  1 RMS(Cart)=  0.06864540 RMS(Int)=  0.00249881
 Iteration  2 RMS(Cart)=  0.00316541 RMS(Int)=  0.00092219
 Iteration  3 RMS(Cart)=  0.00000435 RMS(Int)=  0.00092218
 Iteration  4 RMS(Cart)=  0.00000000 RMS(Int)=  0.00092218
 Variable       Old X    -DE/DX   Delta X   Delta X   Delta X     New X
                                 (Linear)    (Quad)   (Total)
    R1        2.89698  -0.00001  -0.00546  -0.00458  -0.01012   2.88686
    R2        2.53905  -0.00258  -0.00604  -0.00890  -0.01395   2.52510
    R3        2.05467   0.00232   0.00431   0.00511   0.00943   2.06410
    R4        2.89354   0.00305   0.00486   0.01589   0.02041   2.91395
    R5        2.99248  -0.00361   0.00766  -0.01749  -0.01087   2.98162
    R6        2.06590   0.00313   0.00580   0.00692   0.01272   2.07862
    R7        2.87662   0.00079  -0.00208   0.00369   0.00227   2.87889
    R8        2.92707  -0.00289   0.00356  -0.01104  -0.00715   2.91991
    R9        2.95837  -0.00596   0.01111  -0.01880  -0.00712   2.95124
   R10        2.06695   0.00284   0.00594   0.00606   0.01199   2.07895
   R11        2.05207   0.00284   0.00397   0.00668   0.01065   2.06272
   R12        2.04694   0.01016   0.00329   0.02732   0.03061   2.07755
   R13        2.06783   0.00170   0.00605   0.00284   0.00890   2.07673
   R14        2.06382   0.00327   0.00552   0.00739   0.01291   2.07673
   R15        2.95025  -0.00065   0.00267   0.00333   0.00324   2.95350
   R16        2.92119  -0.00508   0.00009  -0.01889  -0.01998   2.90121
   R17        2.06812   0.00432   0.00609   0.01015   0.01624   2.08436
   R18        2.90648  -0.00897  -0.00225  -0.03493  -0.03744   2.86904
   R19        2.05615   0.00328   0.00451   0.00774   0.01225   2.06840
   R20        2.52826  -0.00243  -0.00546  -0.00463  -0.00825   2.52001
   R21        2.06978   0.00333   0.00631   0.00732   0.01363   2.08341
   R22        2.07113   0.00518   0.00649   0.01241   0.01890   2.09003
   R23        2.86080  -0.00186  -0.00522  -0.00381  -0.00728   2.85351
   R24        2.05538   0.00230   0.00441   0.00503   0.00944   2.06483
    A1        1.86308   0.00128   0.00079   0.00668   0.00661   1.86969
    A2        2.19857  -0.00164  -0.00196  -0.00927  -0.01103   2.18754
    A3        2.22047   0.00031   0.00111   0.00114   0.00233   2.22279
    A4        1.71464  -0.00038  -0.00512   0.02149   0.01624   1.73088
    A5        1.76211   0.00122  -0.00340   0.02084   0.01756   1.77967
    A6        2.00053   0.00072  -0.00013   0.01761   0.01764   2.01817
    A7        1.88003  -0.00454   0.00551  -0.05490  -0.05067   1.82936
    A8        2.04992   0.00277   0.00196   0.00991   0.01089   2.06081
    A9        2.01375  -0.00012   0.00009  -0.00995  -0.00976   2.00399
   A10        1.73056   0.00045  -0.00902   0.01279   0.00348   1.73404
   A11        1.89618  -0.00050  -0.00580  -0.00872  -0.01467   1.88151
   A12        1.99168   0.00169   0.00314   0.02053   0.02377   2.01545
   A13        1.76101  -0.00441   0.00913  -0.03908  -0.03053   1.73047
   A14        2.04890   0.00113   0.00114   0.01222   0.01284   2.06174
   A15        2.00365   0.00093   0.00061  -0.00251  -0.00165   2.00200
   A16        1.86391   0.00143   0.00476   0.01326   0.01781   1.88172
   A17        2.21689   0.00025  -0.00137  -0.00131  -0.00284   2.21405
[...]
 46875288,-0.00078234,0.00174995,-0.00436567,-0.00533474,-0.00194520,0.
 00299026,0.00080858,0.01996910,-0.07011204,-0.01373469,0.02627905,-0.0
 2174493,0.00043534,-0.00154099,0.00046200,-0.00034575,-0.00049339,-0.0
 0070960,0.00193416,-0.01278771,0.00837064,0.00014737,-0.00031951,-0.00
 070700,0.00319754,-0.00126445,-0.00173350,0.00761507,-0.00331559,-0.07
 578284,-0.01387529,-0.00055882,0.00249871,-0.02691620,0.07347000,0.567
 17449,-0.00000302,-0.00033072,0.00025982,-0.00293242,-0.00020946,0.001
 53045,0.00182208,-0.00295277,-0.00261831,0.00041070,0.00070014,-0.0001
 5880,-0.00001779,0.00004877,-0.00009063,-0.00003482,0.00019957,-0.0001
 0822,-0.00059486,-0.00046067,0.00024207,-0.00011029,-0.00002880,-0.000
 00466,0.00016552,0.00013644,0.00006332,-0.00754478,0.01713869,0.015220
 61,0.00147629,-0.00011870,-0.00016720,-0.08926363,0.06975695,0.0658775
 1,0.09277386,0.00066864,0.00064241,-0.00068223,-0.00088140,-0.00104566
 ,0.00094505,0.01286319,-0.01935904,-0.01448358,-0.00196121,0.00081401,
 -0.00190387,0.00009015,-0.00006953,0.00008355,0.00022431,-0.00025642,0
 .00044881,-0.00054969,-0.00528934,0.00301357,-0.00020917,0.00022393,-0
 .00001429,0.00151845,-0.00054526,-0.00079728,-0.00427213,0.00548896,0.
 00506666,0.00046939,0.00064556,0.00012840,0.07198312,-0.16075831,-0.11
 558974,-0.07637285,0.17580061,0.00057157,-0.00038712,-0.00006224,-0.00
 037595,0.00008264,0.00065533,-0.00615735,0.00931095,0.00709519,-0.0009
 3077,0.00158450,0.00138124,-0.00003304,0.00002175,-0.00001410,0.000311
 99,-0.00010366,-0.00001398,-0.00041496,0.00307725,-0.00097205,-0.00000
 970,0.00020286,0.00005239,-0.00075757,0.00026737,0.00055439,-0.0015164
 7,-0.00000376,-0.00145824,0.00005174,0.00020236,0.00070364,0.07032300,
 -0.11848228,-0.15506741,-0.07148559,0.11997868,0.16990758,0.00218648,-
 0.00079402,-0.00156869,-0.29336741,0.04017848,0.07980430,-0.00259005,-
 0.00218769,-0.00091565,-0.00019844,0.00046800,-0.00055952,0.00001461,-
 0.00011093,0.00055650,0.00010106,0.00015110,-0.00003341,-0.01105505,0.
 00575710,0.00579380,0.00017147,0.00007563,-0.00028287,0.00039307,-0.00
 024003,0.00009274,-0.00696802,-0.00085574,0.00259158,-0.00002552,0.000
 44140,-0.00008307,-0.00023632,0.00084397,0.00022566,-0.00043132,-0.000
 00812,-0.00009627,0.31187575,-0.00028706,-0.00176479,0.00080031,0.0403
 9240,-0.05286340,-0.01539627,-0.00411468,-0.00342972,-0.00111021,-0.00
 027591,0.00076107,-0.00061700,0.00008646,0.00000747,0.00013400,-0.0001
 0786,0.00030632,0.00014624,-0.01755902,0.00644264,0.00969178,0.0007406
 0,0.00042955,-0.00028924,0.00079109,0.00043235,0.00032000,0.02416481,-
 0.00197997,-0.00739021,-0.00061976,0.00018484,-0.00037904,0.00093008,-
 0.00442869,0.00159043,0.00090183,0.00023324,0.00008628,-0.04405862,0.0
 5309248,0.02862659,-0.00423830,-0.00290263,0.07882732,-0.01500735,-0.0
 7393820,-0.00192243,-0.00170310,-0.00117725,0.00120210,-0.00031097,-0.
 00636147,-0.00102181,0.00015572,0.00093283,0.00131462,0.00112577,-0.00
 004511,-0.00952264,0.00412488,0.00308048,0.00036367,0.00049461,0.00014
 779,0.00062473,0.00005832,0.00011775,-0.00994618,0.00095493,0.00201957
 ,0.00035702,-0.00021592,0.00017346,-0.00140676,0.00179290,-0.00021530,
 -0.00028142,0.00007663,-0.00007060,-0.08587682,0.01310261,0.07642089,-
 0.00073838,-0.00095255,-0.00104987,-0.00308423,0.00147099,0.00173279,-
 0.27439584,-0.10886590,-0.00455036,-0.00595323,-0.00188391,0.00245150,
 -0.00034920,0.00001366,0.00008355,0.00020920,0.00022296,-0.00033596,-0
 .01155999,-0.00936583,-0.00340041,0.00038183,0.00005300,0.00025115,0.0
 0027355,0.00022002,-0.00024174,-0.00007646,0.00125262,-0.00071807,0.00
 011916,-0.00005374,0.00000730,0.00352829,0.00245666,-0.00008646,-0.000
 07262,-0.00044118,0.00026461,-0.00058539,-0.00098655,-0.00025809,0.291
 65745,-0.00026837,0.00058648,-0.00073676,0.00358316,-0.00167107,-0.001
 94611,-0.11013718,-0.09868401,-0.00446502,0.00050308,-0.00162647,0.001
 13957,0.00002074,0.00032808,0.00013379,-0.00003127,0.00003401,0.000017
 34,0.01365218,0.00895870,0.00334312,-0.00080270,0.00022737,0.00001942,
 -0.00065351,0.00026926,0.00050763,0.00075197,-0.00419877,0.00121845,-0
 .00099639,-0.00001495,0.00036369,-0.02399017,-0.00819579,-0.00050134,0
 .00041996,0.00005255,-0.00043726,0.00060507,0.00107725,0.00024713,0.11
 750689,0.10188149,-0.00285363,-0.00073474,-0.00564336,0.00276218,-0.00
 149023,-0.00236000,-0.00328937,-0.00316406,-0.04840985,-0.02504142,-0.
 01233560,0.00533430,-0.00150806,0.00069683,0.00039779,0.00118660,0.000
 44023,0.00074994,0.01183330,0.00987342,0.00124446,-0.00048369,0.000342
 08,0.00026632,-0.00061274,-0.00022273,0.00035788,0.00091885,0.00192555
 ,-0.00023162,0.00041748,0.00015020,-0.00020507,0.01032280,0.00311787,-
 0.00047479,-0.00016722,-0.00002927,0.00017939,0.00058395,0.00059817,0.
 00068622,0.00539469,0.00132880,0.04760673,0.00007573,-0.00047803,0.001
 74521,-0.00294410,-0.00025651,0.00018051,0.00306858,0.00247949,0.00439
 971,0.00095664,-0.00214871,-0.00023501,0.00000895,0.00027697,-0.000037
 54,0.00006070,0.00023818,0.00012057,-0.00007541,-0.00001294,-0.0006973
 3,-0.00057914,0.00093830,-0.00015130,0.00028631,-0.00009830,0.00014375
 ,-0.02766646,-0.00159787,-0.02003528,-0.00297370,0.00008678,0.00002771
 ,-0.10794645,0.00257846,-0.04842195,0.00839885,-0.00171451,0.01237476,
 0.00007866,0.00071978,-0.00047642,0.00038534,-0.00004476,0.00043398,0.
 82131275,0.00071704,0.00036519,0.00148630,-0.00083263,-0.00107259,0.00
 044418,0.01394742,0.00066690,0.02623569,0.00055394,-0.00451790,0.00160
 934,0.00003449,0.00048022,-0.00009730,0.00039855,-0.00011646,0.0005972
 1,0.00085377,-0.00069106,-0.00007524,0.00079946,-0.00100150,0.00146826
 ,0.00001244,0.00018064,0.00054880,-0.00299443,-0.00034528,-0.00372203,
 -0.00085702,-0.00001735,0.00045837,0.00458532,-0.07336563,0.00454990,-
 0.01095770,0.00354946,-0.01692493,0.00005007,0.00019399,-0.00021249,-0
 .00039926,0.00135246,-0.00063407,0.09501931,0.17293715,0.00035694,-0.0
 0036451,0.00013558,0.00073618,0.00077205,-0.00139130,-0.00533617,0.011
 14053,-0.01638782,-0.00041136,0.00152060,-0.00033179,0.00005069,-0.000
 16227,0.00000053,0.00002122,-0.00001724,-0.00001107,-0.00007909,-0.000
 99328,0.00116482,0.00015843,-0.00028553,-0.00026545,0.00065556,-0.0003
 2305,-0.00023005,-0.01206894,-0.00098965,0.00239155,0.00097703,0.00019
 465,-0.00062429,-0.05870955,0.00188803,-0.19406038,-0.00859756,0.00273
 192,-0.01903442,0.00039061,-0.00045373,0.00020772,0.00006342,-0.001439
 71,0.00087505,-0.12754926,-0.07903167,0.64522350,0.00003949,0.00003905
 ,0.00014440,-0.00008881,-0.00015289,0.00001505,-0.00008577,-0.00030647
 ,0.00001175,0.00007593,0.00020429,-0.00011195,0.00002033,-0.00003903,-
 0.00000661,0.00000615,-0.00002766,-0.00001324,0.00005475,0.00009692,-0
 .00006398,-0.00009128,-0.00002880,0.00000368,-0.00000946,0.00003898,-0
 .00001067,0.00022457,-0.00047864,-0.00013994,-0.00037821,0.00005488,-0
 .00006551,-0.00387108,-0.00133438,0.00328197,-0.00007114,0.00002063,-0
 .00061209,0.00001747,0.00007739,-0.00003820,-0.00003047,0.00037328,-0.
 00027660,-0.33588743,-0.03062790,-0.04295487,0.35246164,-0.00000451,-0
 .00009104,-0.00002882,-0.00050012,0.00015657,-0.00002182,-0.00015490,0
 .00071258,-0.00089304,-0.00006604,0.00002346,-0.00001122,-0.00001800,-
 0.00001843,-0.00002347,-0.00000910,0.00001540,-0.00003020,0.00002521,-
 0.00029072,0.00002956,0.00002730,-0.00002913,-0.00002162,0.00003622,0.
 00000779,-0.00000108,-0.00022732,0.00194030,0.00070912,0.00026834,-0.0
 0004413,-0.00014575,0.00204625,0.00142561,0.00053634,0.00019810,0.0001
 5089,0.00051071,0.00006971,0.00006374,-0.00015820,-0.00017654,-0.00014
 324,0.00013829,-0.02996072,-0.04228122,-0.00250575,0.03403871,0.028259
 18,-0.00010383,-0.00001123,0.00025347,-0.00069234,-0.00020125,0.000174
 54,-0.00007350,-0.00097065,0.00079474,0.00019940,0.00000829,-0.0000638
 2,0.00002450,0.00001182,-0.00000144,-0.00000798,-0.00001998,-0.0000323
 8,0.00011178,-0.00001479,0.00001671,0.00001523,0.00004189,0.00004762,-
 0.00000513,0.00005658,0.00003145,-0.00111148,0.00034176,-0.00470940,-0
 .00086885,0.00000197,0.00008169,-0.02347380,-0.00261116,0.00326078,0.0
 0090944,-0.00040889,0.00040474,-0.00012344,0.00034516,-0.00017071,0.00
 033688,0.00055689,-0.00013620,-0.04820268,-0.00284077,-0.06300298,0.04
 822019,0.00218226,0.05555879,0.00055776,0.00308693,-0.00049524,0.00120
 638,-0.00061560,-0.01285745,-0.00208550,-0.00023686,0.00129503,-0.0010
 8482,0.00036114,-0.00138044,0.00000503,-0.00016081,-0.00008293,0.00015
 337,-0.00023089,0.00013188,0.00023823,0.00043987,0.00015452,0.00046911
 ,-0.00008814,-0.00025601,-0.00002291,0.00001442,-0.00012118,-0.0716958
 6,-0.00203114,0.01125924,0.00264222,0.00187033,-0.00933200,-0.00919162
 ,-0.00097401,0.02192632,-0.00275849,-0.00107966,0.00050806,0.00052842,
 -0.00041128,-0.00082372,0.00015112,-0.00046988,0.00026484,-0.04138300,
 -0.00691492,0.00173446,-0.00077216,-0.00171290,0.00210173,0.54192220,0
 .00173455,-0.00344932,0.00093650,-0.00409741,-0.00177422,0.02432013,-0
 .00048283,-0.00114672,0.00187546,-0.00057832,-0.00026314,0.00082043,-0
 .00015970,-0.00008262,0.00053073,-0.00014230,0.00041996,-0.00006970,-0
 .00027774,0.00133512,0.00057136,-0.00044013,-0.00098151,0.00048775,0.0
 0013616,0.00011403,-0.00004783,-0.00242044,-0.08255628,0.01104386,0.00
 357324,0.00472860,-0.02122569,-0.00048636,-0.00874816,0.00201058,0.000
 90150,0.00046079,-0.00122747,0.00011437,0.00055340,0.00004959,-0.00016
 637,-0.00022810,0.00006679,-0.00851462,0.00948209,-0.00035116,-0.00162
 147,0.01121864,0.00210360,0.00634579,0.57742694,0.00007107,0.00168251,
 -0.00030164,0.00027401,0.00599317,-0.01273035,-0.00047252,0.00074319,-
 0.00143987,-0.00022098,-0.00019815,0.00040501,0.00002121,0.00004305,-0
 .00004138,0.00004987,-0.00020198,-0.00000998,0.00073524,-0.00079779,0.
 00061297,-0.00013584,0.00004732,0.00000311,-0.00039636,-0.00025350,0.0
 0011861,0.01239052,0.00856762,-0.17510583,0.00385100,0.00528366,-0.014
 54851,0.01666939,0.00176963,-0.01159299,0.00033543,0.00067027,-0.00101
 802,0.00081927,-0.00176471,0.00125144,-0.00012763,-0.00028697,0.000109
 45,0.01428550,0.00234628,0.00703699,0.00138558,0.00186188,-0.00304008,
 -0.05693150,0.00340031,0.45710874,0.00002337,0.00006937,0.00004945,0.0
 0116145,0.00046114,-0.00086601,-0.00018254,0.00022138,-0.00033506,0.00
 022372,-0.00015878,-0.00022605,0.00002084,0.00000694,-0.00005706,0.000
 00737,0.00001283,-0.00004576,0.00018132,0.00016160,0.00065545,-0.00059
 365,-0.00048636,-0.00002263,0.00004648,-0.00003950,-0.00020636,-0.0006
 3905,-0.00031191,-0.00064891,-0.00014489,-0.00005118,-0.00040197,-0.00
 140462,0.00139579,0.00040093,-0.00014528,-0.00026782,0.00049635,0.0000
 6517,-0.00040533,0.00020591,0.00005697,-0.00001527,-0.00002356,-0.0026
 3664,-0.00004796,-0.00250827,-0.00025841,-0.00222158,0.00030937,-0.135
 01047,0.11003682,0.06325555,0.14906388,-0.00022509,-0.00009861,0.00013
 469,-0.00018082,0.00024824,0.00134290,-0.00020746,0.00047484,0.0000942
 0,-0.00009917,0.00007856,0.00021911,0.00000715,-0.00003158,-0.00003362
 ,0.00000832,-0.00001145,0.00002092,0.00003532,0.00045772,0.00012258,-0
 .00031104,-0.00021280,-0.00026471,0.00013649,0.00004493,-0.00016878,-0
 .00450032,0.00349503,0.00162505,0.00028315,0.00041877,0.00006316,-0.00
 064165,-0.00034904,0.00140469,-0.00022030,-0.00001252,0.00014228,-0.00
 005837,0.00053871,-0.00029546,0.00004029,-0.00005620,-0.00003565,-0.00
 049559,-0.00033904,0.00033010,-0.00007910,-0.00054549,0.00000208,0.109
 69269,-0.17303313,-0.07432708,-0.11808773,0.18417856,-0.00007964,-0.00
 004219,0.00010820,0.00134009,-0.00170352,0.00129815,0.00026044,-0.0004
 8589,0.00047146,-0.00025019,-0.00006892,0.00013309,0.00001832,-0.00002
 701,0.00007584,-0.00004192,0.00004841,0.00004587,-0.00011775,0.0004317
 4,-0.00012406,0.00029559,0.00025080,0.00016067,0.00004209,0.00007593,0
 .00015676,0.01534005,-0.01815386,-0.01149482,0.00087198,0.00043317,-0.
 00322817,-0.00001865,-0.00076028,-0.00339608,0.00110991,0.00043653,-0.
 00015898,-0.00087036,0.00044410,-0.00025728,-0.00009871,0.00023722,-0.
 00006567,-0.00197048,-0.00056195,-0.00065858,0.00012469,-0.00092224,0.
 00022930,0.06085386,-0.07291593,-0.08771401,-0.06790952,0.07826714,0.0
 9491048,0.00008078,0.00007235,-0.00006832,0.00014227,0.00040726,-0.000
 46756,0.00003750,0.00006049,0.00047472,-0.00008269,-0.00020670,-0.0002
 4174,0.00002159,0.00004367,-0.00004678,0.00002222,0.00000814,0.0000197
 7,-0.00000666,0.00007227,0.00006716,-0.00021686,0.00003263,-0.00011351
 ,0.00004599,-0.00001812,-0.00001663,-0.00051890,0.00007798,-0.00069321
 ,0.00076044,0.00021737,-0.00003921,-0.00071583,-0.00143138,0.00001471,
 -0.00002587,0.00003441,0.00005990,0.00007066,-0.00005883,0.00006653,0.
 00003143,0.00000003,-0.00003967,-0.00294418,0.00019880,-0.00286955,-0.
 00080168,0.00222060,0.00088860,-0.08503605,-0.09649382,0.02208730,0.00
 823558,0.01709211,-0.00370531,0.09411313,0.00012127,-0.00019317,0.0000
 0560,-0.00032105,0.00021544,0.00088871,0.00009049,0.00015137,0.0001854
 4,-0.00015659,-0.00000728,0.00008861,-0.00002342,0.00000073,0.00009293
 ,-0.00001106,0.00005556,0.00003674,0.00005991,0.00024445,-0.00035558,0
 .00017722,0.00016487,0.00013399,0.00001142,0.00000524,0.00010397,0.000
 62306,-0.00044265,-0.00196192,0.00022704,0.00146368,-0.00002408,0.0003
 5993,-0.00042261,-0.00011956,-0.00003476,-0.00002702,0.00006076,-0.000
 08702,-0.00003918,-0.00007010,-0.00001695,0.00000933,0.00003645,0.0003
 8014,0.00022303,-0.00091069,0.00001162,-0.00014435,-0.00002638,-0.0950
 8998,-0.26165607,0.05082170,-0.00881580,-0.01990217,0.00418693,0.10399
 828,0.27779339,-0.00054649,0.00052929,0.00020902,0.00132348,-0.0003377
 2,-0.00341202,0.00070628,0.00072431,-0.00037238,0.00046333,0.00013755,
 0.00006618,0.00004648,-0.00000414,-0.00016220,0.00007775,-0.00015216,0
 .00003591,-0.00005136,-0.00059906,-0.00006607,-0.00000827,0.00012587,0
 .00006495,0.00003037,0.00004705,0.00004697,0.01078764,0.02542787,-0.00
 593266,-0.00019385,0.00026514,0.00124759,-0.00041560,0.00057362,-0.002
 28482,0.00019774,-0.00000639,0.00007111,-0.00014117,0.00002088,0.00003
 340,0.00006471,0.00024918,-0.00014712,-0.00175398,0.00016183,-0.001035
 70,-0.00008166,0.00077991,0.00042086,0.01994983,0.04823163,-0.05667448
 ,-0.00497609,-0.01113392,0.00227180,-0.02298424,-0.05277870,0.06143129
 ,-0.00027335,-0.00051908,-0.00045497,-0.00073436,0.00011818,0.00011639
 ,-0.00170453,0.00141101,-0.00272421,0.00006090,0.00066888,0.00029071,-
 0.00005103,-0.00009925,0.00009413,-0.00014678,-0.00000826,-0.00016857,
 -0.00015784,0.00045502,0.00018690,0.00049083,0.00025276,-0.00044712,-0
 .00027989,-0.00013037,-0.00013348,0.00010833,0.00179537,-0.01436930,-0
 .00094099,0.00012820,0.00108661,0.00872773,-0.00089094,0.00181906,-0.0
 0138108,-0.00016575,-0.00292452,-0.00008955,0.00012214,-0.00003191,0.0
 0004298,-0.00006394,0.00021579,-0.31981063,-0.06132136,0.23472649,-0.0
 1106025,-0.00476877,0.02236684,-0.20133871,-0.00985141,-0.05454127,-0.
 01846943,-0.00270705,-0.00593073,-0.01355887,-0.00090403,-0.00299169,0
 .63091227,-0.00011208,-0.00009453,0.00001227,0.00023081,-0.00050976,0.
 00136454,0.00008064,-0.00139137,-0.00046721,0.00020630,0.00030898,0.00
 013331,-0.00001266,0.00005844,0.00006540,-0.00010502,0.00001793,-0.000
 03928,0.00000154,-0.00073767,-0.00008345,0.00055622,-0.00133979,0.0015
 4659,-0.00015111,0.00011796,0.00016734,0.00365523,0.00047077,0.0008948
 4,0.00039301,-0.00004878,0.00014973,-0.00191241,0.00967273,0.00484467,
 0.00027552,-0.00010576,0.00003762,-0.00035698,0.00022780,-0.00000185,0
 .00004201,0.00009247,-0.00011335,-0.05925152,-0.07130939,0.06418985,-0
 .00098179,0.00541175,0.00233406,-0.01168901,-0.07359781,-0.00293995,0.
 01908777,0.00452109,0.01105580,-0.02703143,0.00245154,-0.01270867,0.07
 310353,0.16834904,0.00038911,0.00140079,-0.00102793,0.00073450,-0.0013
 7514,-0.00215480,-0.00085305,-0.00411508,-0.00112279,-0.00090114,0.001
 36957,-0.00051449,-0.00002387,-0.00018428,0.00009193,-0.00003334,-0.00
 011103,-0.00000321,0.00022726,-0.00021144,-0.00070717,-0.00034825,0.00
 109773,0.00039837,-0.00003547,0.00015057,0.00055638,-0.02401943,0.0001
 2447,-0.02772029,0.00025479,0.00085805,-0.00334757,0.01034313,0.008760
 15,-0.04158035,-0.00211581,0.00022354,-0.00277178,-0.00027587,0.000086
 31,0.00006656,0.00018830,0.00039093,-0.00010206,0.22625401,0.06338140,
 -0.34813206,-0.00915064,-0.00126371,0.00931551,-0.04092330,-0.00141436
 ,-0.10019997,0.01340934,0.00249128,0.00738962,0.00800912,-0.00031991,0
 .00428281,-0.11738105,-0.09767906,0.83842731,0.00007806,0.00031798,0.0
 0018711,0.00013311,-0.00028134,-0.00074193,0.00043830,0.00032767,0.000
 64901,0.00006929,-0.00017802,-0.00014774,0.00001269,0.00001457,-0.0000
 4331,0.00004607,-0.00003362,0.00004476,-0.00010698,-0.00002096,-0.0000
 2198,-0.00001986,0.00001045,-0.00001245,0.00008131,0.00002736,-0.00001
 043,-0.00466452,-0.00102035,-0.00083827,0.00010385,0.00026015,-0.00098
 528,-0.00300797,-0.00192681,0.00181321,0.00034012,0.00005119,0.0003523
 1,0.00004425,-0.00004166,0.00001791,0.00000849,0.00005709,-0.00003851,
 0.01021465,-0.00221743,0.02121357,0.00050580,0.00089006,-0.00082092,0.
 00250574,0.00289049,-0.02340484,0.00039882,0.00051818,0.00073623,0.000
 34599,-0.00059972,0.00049678,-0.07034578,0.00397144,-0.06374834,0.0628
 1857,0.00017819,0.00014728,-0.00053447,0.00022708,-0.00032373,-0.00019
 340,-0.00061301,-0.00073459,-0.00157070,-0.00036355,0.00025031,-0.0005
 2573,-0.00000487,-0.00001245,0.00000353,-0.00005355,0.00007551,-0.0000
 7475,0.00004053,-0.00020449,0.00001127,0.00002954,-0.00000130,0.000056
 11,0.00000695,0.00000267,0.00000627,-0.00096807,0.00239801,0.00017824,
 -0.00012154,-0.00012650,0.00020966,-0.00239014,0.01204357,0.00203160,0
 .00100925,-0.00059356,0.00200048,0.00000261,-0.00003909,0.00003066,0.0
 0002969,-0.00005086,0.00004503,0.00185668,0.00562631,0.00506049,0.0007
 2240,-0.00579814,-0.00088126,-0.00010609,0.00177751,-0.00246047,-0.000
 54442,0.00013560,-0.00022598,0.00070389,0.00005588,0.00044661,0.003375
 12,-0.04256564,0.02633921,-0.00301670,0.02793771,0.00011110,0.00027897
 ,-0.00023906,0.00005640,-0.00038430,-0.00006419,-0.00007640,-0.0004603
 9,-0.00052556,-0.00028749,0.00031126,-0.00017455,-0.00000311,-0.000020
 60,0.00000121,0.00000477,-0.00000644,-0.00001753,-0.00000766,-0.000014
 96,-0.00008542,-0.00003041,-0.00002137,-0.00001189,-0.00001463,0.00004
 486,-0.00001505,0.00016594,0.00025158,0.00031850,-0.00016595,0.0000964
 2,-0.00017635,0.00173121,0.00161520,-0.00092918,0.00004911,0.00011193,
 -0.00036318,-0.00003127,0.00003415,0.00000043,0.00002839,0.00006001,-0
 .00003182,-0.01043449,0.00081289,-0.01186985,0.00033864,-0.00072113,0.
 00056682,0.00302400,0.00080343,-0.00222921,-0.00055510,-0.00000097,-0.
 00015359,-0.00040209,-0.00007493,-0.00009443,-0.05880409,0.02723680,-0
 .33114401,0.06530313,-0.02995241,0.34723790\\-0.00002646,0.00003146,0.
 00000683,0.00003092,-0.00002645,0.00000747,-0.00003607,0.00004122,-0.0
 0001535,0.00004468,-0.00004762,0.00000862,-0.00000274,-0.00000308,-0.0
 0000911,-0.00000258,-0.00000002,-0.00000915,0.00000565,-0.00007294,0.0
 0000526,-0.00001022,0.00000703,0.00001353,-0.00000840,0.00001317,-0.00
 000326,0.00004643,0.00006114,-0.00000798,-0.00000475,0.00000644,-0.000
 01632,-0.00002897,0.00000665,0.00003699,0.00001329,0.00000343,-0.00001
 150,-0.00000121,-0.00000717,-0.00000129,0.00000938,0.00000312,0.000005
 25,0.00001360,-0.00000593,-0.00003556,0.00001631,0.00000362,-0.0000050
 0,-0.00002869,-0.00003016,0.00003088,-0.00001016,0.00000138,0.00000892
 ,-0.00000542,-0.00000265,0.00000320,-0.00001706,0.00002216,-0.00001833
 ,0.00000246,-0.00000481,0.00000588\\\@
 The archive entry for this job was punched.


 ...THOSE SCIENCES ARE VAIN AND FULL OF ERRORS WHICH 
 ARE NOT BORN FROM EXPERIMENT, THE MOTHER OF CERTAINTY...

                          -- LEONARDO DA VINCI, 1452-1519
 Job cpu time:       0 days  0 hours 43 minutes  1.8 seconds.
 Elapsed time:       0 days  0 hours  2 minutes 43.6 seconds.
 File lengths (MBytes):  RWF=    102 Int=      0 D2E=      0 Chk=      6 Scr=      1
 Normal termination of Gaussian 16 at Mon Dec 27 18:49:21 2021.
