 Entering Gaussian System, Link 0=/software/g16/g16
 Input=eqMeCyhex.com
 Output=eqMeCyhex.log
 Initial command:
 /software/g16/l1.exe "/scratch/Gau-991022.inp" -scrdir="/scratch/"
 Default CPUs for threads: 0-15
 Default is to use a total of  16 processors:
                               16 via shared-memory
                                1 via Linda
 Entering Link 1 = /software/g16/l1.exe PID=    991023.
  
 Copyright (c) 1988-2019, Gaussian, Inc.  All Rights Reserved.
  
 This is part of the Gaussian(R) 16 program.  It is based on
 the Gaussian(R) 09 system (copyright 2009, Gaussian, Inc.),
 the Gaussian(R) 03 system (copyright 2003, Gaussian, Inc.),
 the Gaussian(R) 98 system (copyright 1998, Gaussian, Inc.),
 the Gaussian(R) 94 system (copyright 1995, Gaussian, Inc.),
 the Gaussian 92(TM) system (copyright 1992, Gaussian, Inc.),
 the Gaussian 90(TM) system (copyright 1990, Gaussian, Inc.),
 the Gaussian 88(TM) system (copyright 1988, Gaussian, Inc.),
 the Gaussian 86(TM) system (copyright 1986, Carnegie Mellon
 University), and the Gaussian 82(TM) system (copyright 1983,
 Carnegie Mellon University). Gaussian is a federally registered
 trademark of Gaussian, Inc.
  
 This software contains proprietary and confidential information,
 including trade secrets, belonging to Gaussian, Inc.
  
 This software is provided under written license and may be
 used, copied, transmitted, or stored only in accord with that
 written license.
  
 The following legend is applicable only to US Government
 contracts under FAR:
  
                    RESTRICTED RIGHTS LEGEND
  
 Use, reproduction and disclosure by the US Government is
 subject to restrictions as set forth in subparagraphs (a)
 and (c) of the Commercial Computer Software - Restricted
 Rights clause in FAR 52.227-19.
  
 Gaussian, Inc.
 340 Quinnipiac St., Bldg. 40, Wallingford CT 06492
  
  
 ---------------------------------------------------------------
 Warning -- This program may not be used in any manner that
 competes with the business of Gaussian, Inc. or will provide
 assistance to any competitor of Gaussian, Inc.  The licensee
 of this program is prohibited from giving any competitor of
 Gaussian, Inc. access to this program.  By using this program,
 the user acknowledges that Gaussian, Inc. is engaged in the
 business of creating and licensing software in the field of
 computational chemistry and represents and warrants to the
 licensee that it is not a competitor of Gaussian, Inc. and that
 it will not use this program in any manner prohibited above.
 ---------------------------------------------------------------
  

 Cite this work as:
 Gaussian 16, Revision C.01,
 M. J. Frisch, G. W. Trucks, H. B. Schlegel, G. E. Scuseria, 
 M. A. Robb, J. R. Cheeseman, G. Scalmani, V. Barone, 
 G. A. Petersson, H. Nakatsuji, X. Li, M. Caricato, A. V. Marenich, 
 J. Bloino, B. G. Janesko, R. Gomperts, B. Mennucci, H. P. Hratchian, 
 J. V. Ortiz, A. F. Izmaylov, J. L. Sonnenberg, D. Williams-Young, 
 F. Ding, F. Lipparini, F. Egidi, J. Goings, B. Peng, A. Petrone, 
 T. Henderson, D. Ranasinghe, V. G. Zakrzewski, J. Gao, N. Rega, 
 G. Zheng, W. Liang, M. Hada, M. Ehara, K. Toyota, R. Fukuda, 
 J. Hasegawa, M. Ishida, T. Nakajima, Y. Honda, O. Kitao, H. Nakai, 
 T. Vreven, K. Throssell, J. A. Montgomery, Jr., J. E. Peralta, 
 F. Ogliaro, M. J. Bearpark, J. J. Heyd, E. N. Brothers, K. N. Kudin, 
 V. N. Staroverov, T. A. Keith, R. Kobayashi, J. Normand, 
 K. Raghavachari, A. P. Rendell, J. C. Burant, S. S. Iyengar, 
 J. Tomasi, M. Cossi, J. M. Millam, M. Klene, C. Adamo, R. Cammi, 
 J. W. Ochterski, R. L. Martin, K. Morokuma, O. Farkas, 
 J. B. Foresman, and D. J. Fox, Gaussian, Inc., Wallingford CT, 2019.
 
 ******************************************
 Gaussian 16:  ES64L-G16RevC.01  3-Jul-2019
                27-Dec-2021 
 ******************************************
 SetSPE:  set environment variable "MP_BIND" = "yes"
 SetSPE:  set environment variable "MP_BLIST" = "0,1,2,3,4,5,6,7,8,9,10,11,12,13,14,15"
 ----------------------------------------------------------------------
 #N M062X/def2svp OPT FREQ=NoRaman temperature=273.15 Integral(Grid=Ult
 raFine)
 ----------------------------------------------------------------------
 1/18=20,19=15,26=4,38=1,112=273150/1,3;
 2/9=110,12=2,17=6,18=5,40=1/2;
 3/5=43,7=101,11=2,25=1,30=1,71=1,74=-55,75=-5/1,2,3;
 4//1;
 5/5=2,38=5/2;
 6/7=2,8=2,9=2,10=2,28=1/1;
 7//1,2,3,16;
 1/18=20,19=15,26=4/3(2);
 2/9=110/2;
 99//99;
 2/9=110/2;
 3/5=43,7=101,11=2,25=1,30=1,71=1,74=-55,75=-5/1,2,3;
 4/5=5,16=3,69=1/1;
 5/5=2,38=5/2;
 7//1,2,3,16;
 1/18=20,19=15,26=4/3(-5);
 2/9=110/2;
 6/7=2,8=2,9=2,10=2,19=2,28=1/1;
 99/9=1/99;
 ----------------
 My cool molecule
 ----------------
 Symbolic Z-matrix:
 Charge =  0 Multiplicity = 1
 C
 C                    1    B1
 C                    2    B2       1    A1
 C                    3    B3       2    A2       1    D1       0
 C                    4    B4       3    A3       2    D2       0
 C                    1    B5       2    A4       3    D3       0
 H                    3    B6       2    A5       1    D4       0
 H                    2    B7       1    A6       6    D5       0
 H                    1    B8       6    A7       5    D6       0
 H                    1    B9       6    A8       5    D7       0
 H                    4    B10      3    A9       2    D8       0
 H                    4    B11      3    A10      2    D9       0
 H                    5    B12      4    A11      3    D10      0
 H                    5    B13      4    A12      3    D11      0
 H                    6    B14      1    A13      2    D12      0
 H                    6    B15      1    A14      2    D13      0
 H                    3    B16      2    A15      1    D14      0
 C                    2    B17      1    A16      6    D15      0
 H                    18   B18      2    A17      1    D16      0
 H                    18   B19      2    A18      1    D17      0
 H                    18   B20      2    A19      1    D18      0
       Variables:
  B1                    1.51511                  
  B2                    1.51518                  
  B3                    1.51543                  
  B4                    1.51513                  
  B5                    1.51499                  
  B6                    1.12087                  
  B7                    1.12177                  
  B8                    1.12177                  
  B9                    1.12093                  
  B10                   1.12176                  
  B11                   1.12091                  
  B12                   1.12096                  
  B13                   1.12182                  
  B14                   1.12176                  
  B15                   1.12098                  
  B16                   1.12168                  
  B17                   1.54                     
  B18                   1.07                     
  B19                   1.07                     
  B20                   1.07                     
  A1                  111.36252                  
  A2                  111.24128                  
  A3                  111.26574                  
  A4                  111.30937                  
  A5                  109.59001                  
  A6                  109.39682                  
  A7                  109.40741                  
  A8                  109.57492                  
  A9                  109.41107                  
  A10                 109.58677                  
  A11                 109.55885                  
  A12                 109.38713                  
  A13                 109.41083                  
  A14                 109.5686                   
  A15                 109.4252                   
  A16                 109.55954                  
  A17                 109.4712                   
  A18                 109.4712                   
  A19                 109.47123                  
  D1                   55.25714                  
  D2                  -55.23664                  
  D3                  -55.19283                  
  D4                  176.59527                  
  D5                   65.84972                  
  D6                  -65.94976                  
  D7                  176.44369                  
  D8                   65.79363                  
  D9                 -176.57423                  
  D10                 176.61579                  
  D11                 -65.8064                   
  D12                 -65.96332                  
  D13                 176.42533                  
  D14                 -65.75731                  
  D15                -176.56184                  
  D16                -178.76723                  
  D17                 -58.76722                  
  D18                  61.23278                  
 
     3 tetrahedral angles replaced.

 GradGradGradGradGradGradGradGradGradGradGradGradGradGradGradGradGradGrad
 Berny optimization.
 Initialization pass.
                           ----------------------------
                           !    Initial Parameters    !
                           ! (Angstroms and Degrees)  !
 --------------------------                            --------------------------
 ! Name  Definition              Value          Derivative Info.                !
 --------------------------------------------------------------------------------
 ! R1    R(1,2)                  1.5151         estimate D2E/DX2                !
 ! R2    R(1,6)                  1.515          estimate D2E/DX2                !
 ! R3    R(1,9)                  1.1218         estimate D2E/DX2                !
 ! R4    R(1,10)                 1.1209         estimate D2E/DX2                !
 ! R5    R(2,3)                  1.5152         estimate D2E/DX2                !
 ! R6    R(2,8)                  1.1218         estimate D2E/DX2                !
 ! R7    R(2,18)                 1.54           estimate D2E/DX2                !
 ! R8    R(3,4)                  1.5154         estimate D2E/DX2                !
 ! R9    R(3,7)                  1.1209         estimate D2E/DX2                !
 ! R10   R(3,17)                 1.1217         estimate D2E/DX2                !
 ! R11   R(4,5)                  1.5151         estimate D2E/DX2                !
 ! R12   R(4,11)                 1.1218         estimate D2E/DX2                !
 ! R13   R(4,12)                 1.1209         estimate D2E/DX2                !
 ! R14   R(5,6)                  1.5151         estimate D2E/DX2                !
 ! R15   R(5,13)                 1.121          estimate D2E/DX2                !
 ! R16   R(5,14)                 1.1218         estimate D2E/DX2                !
 ! R17   R(6,15)                 1.1218         estimate D2E/DX2                !
 ! R18   R(6,16)                 1.121          estimate D2E/DX2                !
 ! R19   R(18,19)                1.07           estimate D2E/DX2                !
 ! R20   R(18,20)                1.07           estimate D2E/DX2                !
 ! R21   R(18,21)                1.07           estimate D2E/DX2                !
 ! A1    A(2,1,6)              111.3094         estimate D2E/DX2                !
 ! A2    A(2,1,9)              109.4042         estimate D2E/DX2                !
 ! A3    A(2,1,10)             109.5772         estimate D2E/DX2                !
 ! A4    A(6,1,9)              109.4074         estimate D2E/DX2                !
 ! A5    A(6,1,10)             109.5749         estimate D2E/DX2                !
 ! A6    A(9,1,10)             107.4863         estimate D2E/DX2                !
 ! A7    A(1,2,3)              111.3625         estimate D2E/DX2                !
 ! A8    A(1,2,8)              109.3968         estimate D2E/DX2                !
 ! A9    A(1,2,18)             109.5595         estimate D2E/DX2                !
 ! A10   A(3,2,8)              109.3908         estimate D2E/DX2                !
 ! A11   A(3,2,18)             109.5638         estimate D2E/DX2                !
 ! A12   A(8,2,18)             107.4839         estimate D2E/DX2                !
 ! A13   A(2,3,4)              111.2413         estimate D2E/DX2                !
 ! A14   A(2,3,7)              109.59           estimate D2E/DX2                !
 ! A15   A(2,3,17)             109.4252         estimate D2E/DX2                !
 ! A16   A(4,3,7)              109.586          estimate D2E/DX2                !
 ! A17   A(4,3,17)             109.4158         estimate D2E/DX2                !
 ! A18   A(7,3,17)             107.5042         estimate D2E/DX2                !
 ! A19   A(3,4,5)              111.2657         estimate D2E/DX2                !
 ! A20   A(3,4,11)             109.4111         estimate D2E/DX2                !
 ! A21   A(3,4,12)             109.5868         estimate D2E/DX2                !
 ! A22   A(5,4,11)             109.4233         estimate D2E/DX2                !
 ! A23   A(5,4,12)             109.5746         estimate D2E/DX2                !
 ! A24   A(11,4,12)            107.5            estimate D2E/DX2                !
 ! A25   A(4,5,6)              111.3744         estimate D2E/DX2                !
 ! A26   A(4,5,13)             109.5589         estimate D2E/DX2                !
 ! A27   A(4,5,14)             109.3871         estimate D2E/DX2                !
 ! A28   A(6,5,13)             109.5649         estimate D2E/DX2                !
 ! A29   A(6,5,14)             109.3914         estimate D2E/DX2                !
 ! A30   A(13,5,14)            107.4801         estimate D2E/DX2                !
 ! A31   A(1,6,5)              111.2962         estimate D2E/DX2                !
 ! A32   A(1,6,15)             109.4108         estimate D2E/DX2                !
 ! A33   A(1,6,16)             109.5686         estimate D2E/DX2                !
 ! A34   A(5,6,15)             109.42           estimate D2E/DX2                !
 ! A35   A(5,6,16)             109.5728         estimate D2E/DX2                !
 ! A36   A(15,6,16)            107.4917         estimate D2E/DX2                !
 ! A37   A(2,18,19)            109.4712         estimate D2E/DX2                !
 ! A38   A(2,18,20)            109.4712         estimate D2E/DX2                !
 ! A39   A(2,18,21)            109.4712         estimate D2E/DX2                !
 ! A40   A(19,18,20)           109.4712         estimate D2E/DX2                !
 ! A41   A(19,18,21)           109.4712         estimate D2E/DX2                !
 ! A42   A(20,18,21)           109.4712         estimate D2E/DX2                !
 ! D1    D(6,1,2,3)            -55.1928         estimate D2E/DX2                !
 ! D2    D(6,1,2,8)             65.8497         estimate D2E/DX2                !
 ! D3    D(6,1,2,18)          -176.5618         estimate D2E/DX2                !
 ! D4    D(9,1,2,3)             65.8411         estimate D2E/DX2                !
 ! D5    D(9,1,2,8)           -173.1163         estimate D2E/DX2                !
 ! D6    D(9,1,2,18)           -55.5279         estimate D2E/DX2                !
 ! D7    D(10,1,2,3)          -176.5529         estimate D2E/DX2                !
 ! D8    D(10,1,2,8)           -55.5104         estimate D2E/DX2                !
 ! D9    D(10,1,2,18)           62.0781         estimate D2E/DX2                !
 ! D10   D(2,1,6,5)             55.0823         estimate D2E/DX2                !
 ! D11   D(2,1,6,15)           -65.9633         estimate D2E/DX2                !
 ! D12   D(2,1,6,16)           176.4253         estimate D2E/DX2                !
 ! D13   D(9,1,6,5)            -65.9498         estimate D2E/DX2                !
 ! D14   D(9,1,6,15)           173.0046         estimate D2E/DX2                !
 ! D15   D(9,1,6,16)            55.3933         estimate D2E/DX2                !
 ! D16   D(10,1,6,5)           176.4437         estimate D2E/DX2                !
 ! D17   D(10,1,6,15)           55.3981         estimate D2E/DX2                !
 ! D18   D(10,1,6,16)          -62.2133         estimate D2E/DX2                !
 ! D19   D(1,2,3,4)             55.2571         estimate D2E/DX2                !
 ! D20   D(1,2,3,7)            176.5953         estimate D2E/DX2                !
 ! D21   D(1,2,3,17)           -65.7573         estimate D2E/DX2                !
 ! D22   D(8,2,3,4)            -65.7889         estimate D2E/DX2                !
 ! D23   D(8,2,3,7)             55.5492         estimate D2E/DX2                !
 ! D24   D(8,2,3,17)           173.1966         estimate D2E/DX2                !
 ! D25   D(18,2,3,4)           176.6237         estimate D2E/DX2                !
 ! D26   D(18,2,3,7)           -62.0382         estimate D2E/DX2                !
 ! D27   D(18,2,3,17)           55.6092         estimate D2E/DX2                !
 ! D28   D(1,2,18,19)         -178.7672         estimate D2E/DX2                !
 ! D29   D(1,2,18,20)          -58.7672         estimate D2E/DX2                !
 ! D30   D(1,2,18,21)           61.2328         estimate D2E/DX2                !
 ! D31   D(3,2,18,19)           58.7857         estimate D2E/DX2                !
 ! D32   D(3,2,18,20)          178.7857         estimate D2E/DX2                !
 ! D33   D(3,2,18,21)          -61.2143         estimate D2E/DX2                !
 ! D34   D(8,2,18,19)          -59.9884         estimate D2E/DX2                !
 ! D35   D(8,2,18,20)           60.0117         estimate D2E/DX2                !
 ! D36   D(8,2,18,21)         -179.9883         estimate D2E/DX2                !
 ! D37   D(2,3,4,5)            -55.2366         estimate D2E/DX2                !
 ! D38   D(2,3,4,11)            65.7936         estimate D2E/DX2                !
 ! D39   D(2,3,4,12)          -176.5742         estimate D2E/DX2                !
 ! D40   D(7,3,4,5)           -176.5771         estimate D2E/DX2                !
 ! D41   D(7,3,4,11)           -55.5468         estimate D2E/DX2                !
 ! D42   D(7,3,4,12)            62.0853         estimate D2E/DX2                !
 ! D43   D(17,3,4,5)            65.7833         estimate D2E/DX2                !
 ! D44   D(17,3,4,11)         -173.1864         estimate D2E/DX2                !
 ! D45   D(17,3,4,12)          -55.5543         estimate D2E/DX2                !
 ! D46   D(3,4,5,6)             55.2381         estimate D2E/DX2                !
 ! D47   D(3,4,5,13)           176.6158         estimate D2E/DX2                !
 ! D48   D(3,4,5,14)           -65.8064         estimate D2E/DX2                !
 ! D49   D(11,4,5,6)           -65.785          estimate D2E/DX2                !
 ! D50   D(11,4,5,13)           55.5927         estimate D2E/DX2                !
 ! D51   D(11,4,5,14)          173.1705         estimate D2E/DX2                !
 ! D52   D(12,4,5,6)           176.5828         estimate D2E/DX2                !
 ! D53   D(12,4,5,13)          -62.0395         estimate D2E/DX2                !
 ! D54   D(12,4,5,14)           55.5383         estimate D2E/DX2                !
 ! D55   D(4,5,6,1)            -55.1527         estimate D2E/DX2                !
 ! D56   D(4,5,6,15)            65.8876         estimate D2E/DX2                !
 ! D57   D(4,5,6,16)          -176.4932         estimate D2E/DX2                !
 ! D58   D(13,5,6,1)          -176.5268         estimate D2E/DX2                !
 ! D59   D(13,5,6,15)          -55.4866         estimate D2E/DX2                !
 ! D60   D(13,5,6,16)           62.1326         estimate D2E/DX2                !
 ! D61   D(14,5,6,1)            65.8893         estimate D2E/DX2                !
 ! D62   D(14,5,6,15)         -173.0704         estimate D2E/DX2                !
 ! D63   D(14,5,6,16)          -55.4512         estimate D2E/DX2                !
 --------------------------------------------------------------------------------
 Trust Radius=3.00D-01 FncErr=1.00D-07 GrdErr=1.00D-06 EigMax=2.50D+02 EigMin=1.00D-04
 Number of steps in this run=    126 maximum allowed number of steps=    126.
 GradGradGradGradGradGradGradGradGradGradGradGradGradGradGradGradGradGrad

                          Input orientation:                          
 ---------------------------------------------------------------------
 Center     Atomic      Atomic             Coordinates (Angstroms)
 Number     Number       Type             X           Y           Z
 ---------------------------------------------------------------------
      1          6           0        0.000000    0.000000    0.000000
      2          6           0        0.000000    0.000000    1.515106
      3          6           0        1.411078    0.000000    2.067037
      4          6           0        2.215615    1.160661    1.517374
      5          6           0        2.216276    1.160172    0.002249
      6          6           0        0.805655    1.158876   -0.550551
      7          1           0        1.377087    0.062714    3.185636
      8          1           0       -0.545634    0.906562    1.887655
      9          1           0        0.433029   -0.965385   -0.372688
     10          1           0       -1.054220    0.063502   -0.375597
     11          1           0        1.780770    2.125272    1.889909
     12          1           0        3.269752    1.098666    1.893397
     13          1           0        2.765704    2.062286   -0.373071
     14          1           0        2.762877    0.253849   -0.369606
     15          1           0        0.299933    2.124191   -0.284547
     16          1           0        0.840716    1.093938   -1.669099
     17          1           0        1.916711   -0.964546    1.798419
     18          6           0       -0.755384   -1.239024    2.030677
     19          1           0       -0.773098   -1.226385    3.100455
     20          1           0       -1.758005   -1.226485    1.657186
     21          1           0       -0.259895   -2.125084    1.692609
 ---------------------------------------------------------------------
                    Distance matrix (angstroms):
                    1          2          3          4          5
     1  C    0.000000
     2  C    1.515106   0.000000
     3  C    2.502755   1.515180   0.000000
     4  C    2.925493   2.501217   1.515435   0.000000
     5  C    2.501576   2.923459   2.501538   1.515125   0.000000
     6  C    1.514985   2.501802   2.925970   2.502859   1.515071
     7  H    3.471106   2.165865   1.120871   2.166037   3.470246
     8  H    2.163981   1.121768   2.163967   2.797529   3.353688
     9  H    1.121775   2.164081   2.800144   3.357085   2.799739
    10  H    1.120931   2.165680   3.471050   3.934326   3.470100
    11  H    3.355545   2.797928   2.164446   1.121761   2.164334
    12  H    3.934882   3.470079   2.166076   1.120911   2.165649
    13  H    3.470061   3.932856   3.470182   2.165481   1.120958
    14  H    2.799024   3.354112   2.798040   2.163908   1.121816
    15  H    2.164050   2.800160   3.358091   2.800919   2.164245
    16  H    2.165501   3.470254   3.934555   3.471082   2.165631
    17  H    2.799722   2.164347   1.121681   2.164448   2.798284
    18  C    2.495884   1.540000   2.496009   3.853415   4.324515
    19  H    3.422649   2.148263   2.709723   4.139630   4.922489
    20  H    2.709449   2.148263   3.422766   4.637636   4.922383
    21  H    2.729185   2.148263   2.729162   4.117642   4.447656
                    6          7          8          9         10
     6  C    0.000000
     7  H    3.935378   0.000000
     8  H    2.799016   2.468540   0.000000
     9  H    2.164017   3.822290   3.093722   0.000000
    10  H    2.165546   4.312034   2.468141   1.808460   0.000000
    11  H    2.800110   2.469011   2.626293   4.060531   4.173797
    12  H    3.471063   2.515007   3.820223   4.176415   4.991656
    13  H    2.165512   4.311721   4.172714   3.822063   4.311260
    14  H    2.163916   3.820562   4.058018   2.629588   3.821845
    15  H    1.121760   4.177573   2.629841   3.093697   2.467480
    16  H    1.120980   4.991950   3.821986   2.467327   2.515100
    17  H    3.355745   1.808543   3.093889   2.629642   3.822258
    18  C    3.853506   2.752433   2.160553   2.695063   2.752459
    19  H    4.638079   2.508451   2.464161   3.685863   3.718303
    20  H    4.139614   3.718466   2.464315   2.998198   2.508304
    21  H    4.117227   3.113727   3.051322   2.467893   3.114215
                   11         12         13         14         15
    11  H    0.000000
    12  H    1.808590   0.000000
    13  H    2.468834   2.513863   0.000000
    14  H    3.093892   2.468161   1.808443   0.000000
    15  H    2.630806   3.822953   2.468136   3.093785   0.000000
    16  H    3.822812   4.311800   2.514551   2.467617   1.808550
    17  H    3.094160   2.469126   3.820716   2.626940   4.061159
    18  C    4.215493   4.656755   5.392098   4.513113   4.217247
    19  H    4.384207   4.817415   5.950114   5.170642   4.882212
    20  H    4.879689   5.544408   5.949950   5.170846   4.385484
    21  H    4.718979   4.784484   5.563753   4.364539   4.720052
                   16         17         18         19         20
    16  H    0.000000
    17  H    4.173584   0.000000
    18  C    4.656027   2.696178   0.000000
    19  H    5.544091   2.999822   1.070000   0.000000
    20  H    4.816834   3.686746   1.070000   1.747303   0.000000
    21  H    4.782732   2.468939   1.070000   1.747303   1.747303
                   21
    21  H    0.000000
 Stoichiometry    C7H14
 Framework group  C1[X(C7H14)]
 Deg. of freedom    57
 Full point group                 C1      NOp   1
 Largest Abelian subgroup         C1      NOp   1
 Largest concise Abelian subgroup C1      NOp   1
                         Standard orientation:                         
 ---------------------------------------------------------------------
 Center     Atomic      Atomic             Coordinates (Angstroms)
 Number     Number       Type             X           Y           Z
 ---------------------------------------------------------------------
      1          6           0        0.297200    1.251306    0.151586
      2          6           0        0.985566   -0.000206   -0.353802
      3          6           0        0.297406   -1.251449    0.152752
      4          6           0       -1.175131   -1.251373   -0.205269
      5          6           0       -1.863655   -0.000218    0.300843
      6          6           0       -1.175426    1.251486   -0.204154
      7          1           0        0.791095   -2.156305   -0.287541
      8          1           0        0.980921   -0.000785   -1.475560
      9          1           0        0.411549    1.315493    1.265670
     10          1           0        0.790411    2.155728   -0.290285
     11          1           0       -1.287882   -1.314410   -1.319567
     12          1           0       -1.668985   -2.156101    0.235205
     13          1           0       -2.934093   -0.000255   -0.031884
     14          1           0       -1.859480   -0.000757    1.422651
     15          1           0       -1.289835    1.316395   -1.318175
     16          1           0       -1.668487    2.155698    0.238438
     17          1           0        0.410231   -1.314148    1.266982
     18          6           0        2.456322    0.000209    0.102787
     19          1           0        2.946660   -0.873474   -0.272908
     20          1           0        2.946342    0.873828   -0.273470
     21          1           0        2.497855    0.000560    1.171981
 ---------------------------------------------------------------------
 Rotational constants (GHZ):           4.2297935           2.2407249           1.6255540
 Standard basis: def2SVP (5D, 7F)
 There are   175 symmetry adapted cartesian basis functions of A   symmetry.
 There are   168 symmetry adapted basis functions of A   symmetry.
   168 basis functions,   273 primitive gaussians,   175 cartesian basis functions
    28 alpha electrons       28 beta electrons
       nuclear repulsion energy       330.4154669795 Hartrees.
 NAtoms=   21 NActive=   21 NUniq=   21 SFac= 1.00D+00 NAtFMM=   60 NAOKFM=F Big=F
 Integral buffers will be    131072 words long.
 Raffenetti 2 integral format.
 Two-electron integral symmetry is turned on.
 One-electron integrals computed using PRISM.
   1 Symmetry operations used in ECPInt.
 ECPInt:  NShTT=    3570 NPrTT=   12068 LenC2=    3565 LenP2D=   10214.
 LDataN:  DoStor=T MaxTD1= 4 Len=   56
 NBasis=   168 RedAO= T EigKep=  1.30D-03  NBF=   168
 NBsUse=   168 1.00D-06 EigRej= -1.00D+00 NBFU=   168
 ExpMin= 1.22D-01 ExpMax= 1.24D+03 ExpMxC= 1.86D+02 IAcc=3 IRadAn=         5 AccDes= 0.00D+00
 Harris functional with IExCor= 1009 and IRadAn=       5 diagonalized for initial guess.
 HarFok:  IExCor= 1009 AccDes= 0.00D+00 IRadAn=         5 IDoV= 1 UseB2=F ITyADJ=14
 ICtDFT=  3500011 ScaDFX=  1.000000  1.000000  1.000000  1.000000
 FoFCou: FMM=F IPFlag=           0 FMFlag=      100000 FMFlg1=           0
         NFxFlg=           0 DoJE=T BraDBF=F KetDBF=T FulRan=T
         wScrn=  0.000000 ICntrl=       500 IOpCl=  0 I1Cent=   200000004 NGrid=           0
         NMat0=    1 NMatS0=      1 NMatT0=    0 NMatD0=    1 NMtDS0=    0 NMtDT0=    0
 Petite list used in FoFCou.
 Requested convergence on RMS density matrix=1.00D-08 within 128 cycles.
 Requested convergence on MAX density matrix=1.00D-06.
 Requested convergence on             energy=1.00D-06.
 No special actions if energy rises.
 Integral accuracy reduced to 1.0D-05 until final iterations.
 Initial convergence to 1.0D-05 achieved.  Increase integral accuracy.
 SCF Done:  E(RM062X) =  -274.835077837     A.U. after   12 cycles
            NFock= 12  Conv=0.69D-08     -V/T= 2.0126

 **********************************************************************

            Population analysis using the SCF Density.

 **********************************************************************

 Orbital symmetries:
       Occupied  (A) (A) (A) (A) (A) (A) (A) (A) (A) (A) (A) (A)
                 (A) (A) (A) (A) (A) (A) (A) (A) (A) (A) (A) (A)
                 (A) (A) (A) (A)
       Virtual   (A) (A) (A) (A) (A) (A) (A) (A) (A) (A) (A) (A)
                 (A) (A) (A) (A) (A) (A) (A) (A) (A) (A) (A) (A)
                 (A) (A) (A) (A) (A) (A) (A) (A) (A) (A) (A) (A)
                 (A) (A) (A) (A) (A) (A) (A) (A) (A) (A) (A) (A)
                 (A) (A) (A) (A) (A) (A) (A) (A) (A) (A) (A) (A)
                 (A) (A) (A) (A) (A) (A) (A) (A) (A) (A) (A) (A)
                 (A) (A) (A) (A) (A) (A) (A) (A) (A) (A) (A) (A)
                 (A) (A) (A) (A) (A) (A) (A) (A) (A) (A) (A) (A)
                 (A) (A) (A) (A) (A) (A) (A) (A) (A) (A) (A) (A)
                 (A) (A) (A) (A) (A) (A) (A) (A) (A) (A) (A) (A)
                 (A) (A) (A) (A) (A) (A) (A) (A) (A) (A) (A) (A)
                 (A) (A) (A) (A) (A) (A) (A) (A)
 The electronic state is 1-A.
 Alpha  occ. eigenvalues --  -10.54483 -10.54300 -10.54267 -10.54256 -10.54201
 Alpha  occ. eigenvalues --  -10.54197 -10.52827  -0.93251  -0.85127  -0.82442
 Alpha  occ. eigenvalues --   -0.75330  -0.67789  -0.65215  -0.61747  -0.54215
 Alpha  occ. eigenvalues --   -0.51486  -0.50510  -0.49410  -0.48085  -0.44683
 Alpha  occ. eigenvalues --   -0.43555  -0.41968  -0.41117  -0.39538  -0.38706
 Alpha  occ. eigenvalues --   -0.36829  -0.34633  -0.34489
 Alpha virt. eigenvalues --    0.08960   0.10321   0.11570   0.12629   0.16164
 Alpha virt. eigenvalues --    0.16882   0.16929   0.17517   0.18544   0.18604
 Alpha virt. eigenvalues --    0.19504   0.20048   0.21715   0.21783   0.24611
 Alpha virt. eigenvalues --    0.28111   0.28258   0.30038   0.30324   0.30947
 Alpha virt. eigenvalues --    0.32328   0.46111   0.46199   0.47342   0.48081
 Alpha virt. eigenvalues --    0.48416   0.49776   0.50255   0.58724   0.63243
 Alpha virt. eigenvalues --    0.66437   0.67439   0.68016   0.69631   0.70025
 Alpha virt. eigenvalues --    0.70069   0.71087   0.72224   0.72418   0.72517
 Alpha virt. eigenvalues --    0.72701   0.72851   0.73661   0.74828   0.75736
 Alpha virt. eigenvalues --    0.76499   0.76950   0.76971   0.77163   0.78304
 Alpha virt. eigenvalues --    0.78998   0.79160   0.80240   0.82990   0.90216
 Alpha virt. eigenvalues --    0.94494   0.99441   1.07558   1.11982   1.16451
 Alpha virt. eigenvalues --    1.16913   1.19017   1.22225   1.29139   1.30786
 Alpha virt. eigenvalues --    1.31004   1.36024   1.38142   1.41539   1.43458
 Alpha virt. eigenvalues --    1.54135   1.55719   1.60302   1.65168   1.69562
 Alpha virt. eigenvalues --    1.71979   1.77318   1.78752   1.80038   1.80117
 Alpha virt. eigenvalues --    1.80370   1.81247   1.83152   1.84016   1.85160
 Alpha virt. eigenvalues --    1.85826   1.86438   1.86647   1.88164   1.88487
 Alpha virt. eigenvalues --    1.89286   1.91002   1.91903   1.94108   1.94158
 Alpha virt. eigenvalues --    1.96054   1.97566   1.98401   2.03336   2.03365
 Alpha virt. eigenvalues --    2.03778   2.05777   2.06908   2.11837   2.14113
 Alpha virt. eigenvalues --    2.15663   2.24414   2.24834   2.27055   2.28592
 Alpha virt. eigenvalues --    2.31072   2.37336   2.44009   2.44441   2.44469
 Alpha virt. eigenvalues --    2.45369   2.48153   2.48305   2.55343   2.57557
 Alpha virt. eigenvalues --    2.58080   2.62542   2.65485   2.67536   2.68640
 Alpha virt. eigenvalues --    2.74021   2.85166   2.88039   2.88819   2.91031
 Alpha virt. eigenvalues --    2.92118   2.93608   2.96235   3.00430   3.03254
 Alpha virt. eigenvalues --    3.03363   3.05305   3.11803   3.12849   3.13947
          Condensed to atoms (all electrons):
               1          2          3          4          5          6
     1  C    4.804678   0.379326  -0.068212  -0.021609  -0.060490   0.401013
     2  C    0.379326   5.009595   0.379330  -0.059630  -0.025429  -0.059684
     3  C   -0.068212   0.379330   4.804553   0.401014  -0.060388  -0.021619
     4  C   -0.021609  -0.059630   0.401014   4.712081   0.426988  -0.069660
     5  C   -0.060490  -0.025429  -0.060388   0.426988   4.717296   0.427021
     6  C    0.401013  -0.059684  -0.021619  -0.069660   0.427021   4.711840
     7  H    0.010261  -0.024116   0.367629  -0.016895   0.008650   0.000222
     8  H   -0.034306   0.370698  -0.034387  -0.003153  -0.005473  -0.003138
     9  H    0.377522  -0.031289  -0.008100  -0.005123  -0.005025  -0.028984
    10  H    0.367591  -0.024109   0.010272   0.000216   0.008667  -0.016893
    11  H   -0.006624  -0.007149  -0.021843   0.370929  -0.027680  -0.004646
    12  H    0.000331   0.009132  -0.020350   0.367942  -0.020866   0.009309
    13  H    0.008905   0.000734   0.008901  -0.021298   0.369571  -0.021312
    14  H   -0.004282  -0.006647  -0.004297  -0.028941   0.375307  -0.028863
    15  H   -0.021778  -0.007171  -0.006582  -0.004684  -0.027685   0.370937
    16  H   -0.020346   0.009150   0.000324   0.009318  -0.020870   0.367932
    17  H   -0.008091  -0.031191   0.377500  -0.029004  -0.005026  -0.005135
    18  C   -0.062636   0.408625  -0.062642   0.010694   0.000283   0.010690
    19  H    0.009714  -0.021493  -0.004911   0.000555   0.000013  -0.000659
    20  H   -0.004899  -0.021519   0.009718  -0.000659   0.000013   0.000557
    21  H   -0.010605  -0.019879  -0.010604   0.000459  -0.000199   0.000459
               7          8          9         10         11         12
     1  C    0.010261  -0.034306   0.377522   0.367591  -0.006624   0.000331
     2  C   -0.024116   0.370698  -0.031289  -0.024109  -0.007149   0.009132
     3  C    0.367629  -0.034387  -0.008100   0.010272  -0.021843  -0.020350
     4  C   -0.016895  -0.003153  -0.005123   0.000216   0.370929   0.367942
     5  C    0.008650  -0.005473  -0.005025   0.008667  -0.027680  -0.020866
     6  C    0.000222  -0.003138  -0.028984  -0.016893  -0.004646   0.009309
     7  H    0.673811  -0.009211  -0.000151  -0.000392  -0.008722  -0.005028
     8  H   -0.009211   0.706700   0.009127  -0.009233   0.006055  -0.000170
     9  H   -0.000151   0.009127   0.685783  -0.028627   0.000404  -0.000028
    10  H   -0.000392  -0.009233  -0.028627   0.673870  -0.000005   0.000051
    11  H   -0.008722   0.006055   0.000404  -0.000005   0.685627  -0.027840
    12  H   -0.005028  -0.000170  -0.000028   0.000051  -0.027840   0.673243
    13  H   -0.000387  -0.000012  -0.000093  -0.000387  -0.008406  -0.004908
    14  H   -0.000070   0.000395   0.006052  -0.000074   0.008726  -0.008461
    15  H   -0.000004   0.006037   0.008732  -0.008792   0.005977  -0.000119
    16  H    0.000051  -0.000174  -0.008820  -0.005002  -0.000119  -0.000388
    17  H   -0.028643   0.009121   0.006205  -0.000151   0.008720  -0.008747
    18  C   -0.006417  -0.029705  -0.005979  -0.006416   0.000142  -0.000417
    19  H    0.006061  -0.007101   0.000026  -0.000036  -0.000058  -0.000013
    20  H   -0.000036  -0.007099  -0.001483   0.006067   0.000011   0.000019
    21  H   -0.001194   0.008363   0.007128  -0.001193   0.000007  -0.000002
              13         14         15         16         17         18
     1  C    0.008905  -0.004282  -0.021778  -0.020346  -0.008091  -0.062636
     2  C    0.000734  -0.006647  -0.007171   0.009150  -0.031191   0.408625
     3  C    0.008901  -0.004297  -0.006582   0.000324   0.377500  -0.062642
     4  C   -0.021298  -0.028941  -0.004684   0.009318  -0.029004   0.010694
     5  C    0.369571   0.375307  -0.027685  -0.020870  -0.005026   0.000283
     6  C   -0.021312  -0.028863   0.370937   0.367932  -0.005135   0.010690
     7  H   -0.000387  -0.000070  -0.000004   0.000051  -0.028643  -0.006417
     8  H   -0.000012   0.000395   0.006037  -0.000174   0.009121  -0.029705
     9  H   -0.000093   0.006052   0.008732  -0.008820   0.006205  -0.005979
    10  H   -0.000387  -0.000074  -0.008792  -0.005002  -0.000151  -0.006416
    11  H   -0.008406   0.008726   0.005977  -0.000119   0.008720   0.000142
    12  H   -0.004908  -0.008461  -0.000119  -0.000388  -0.008747  -0.000417
    13  H    0.670668  -0.027826  -0.008438  -0.004882  -0.000090   0.000043
    14  H   -0.027826   0.684341   0.008726  -0.008492   0.006064  -0.000041
    15  H   -0.008438   0.008726   0.685672  -0.027826   0.000403   0.000137
    16  H   -0.004882  -0.008492  -0.027826   0.673259  -0.000029  -0.000417
    17  H   -0.000090   0.006064   0.000403  -0.000029   0.685647  -0.005967
    18  C    0.000043  -0.000041   0.000137  -0.000417  -0.005967   4.527470
    19  H   -0.000002   0.000001   0.000011   0.000019  -0.001479   0.389372
    20  H   -0.000002   0.000001  -0.000058  -0.000013   0.000024   0.389373
    21  H    0.000001  -0.000049   0.000007  -0.000003   0.007116   0.398132
              19         20         21
     1  C    0.009714  -0.004899  -0.010605
     2  C   -0.021493  -0.021519  -0.019879
     3  C   -0.004911   0.009718  -0.010604
     4  C    0.000555  -0.000659   0.000459
     5  C    0.000013   0.000013  -0.000199
     6  C   -0.000659   0.000557   0.000459
     7  H    0.006061  -0.000036  -0.001194
     8  H   -0.007101  -0.007099   0.008363
     9  H    0.000026  -0.001483   0.007128
    10  H   -0.000036   0.006067  -0.001193
    11  H   -0.000058   0.000011   0.000007
    12  H   -0.000013   0.000019  -0.000002
    13  H   -0.000002  -0.000002   0.000001
    14  H    0.000001   0.000001  -0.000049
    15  H    0.000011  -0.000058   0.000007
    16  H    0.000019  -0.000013  -0.000003
    17  H   -0.001479   0.000024   0.007116
    18  C    0.389372   0.389373   0.398132
    19  H    0.649928  -0.021774  -0.022596
    20  H   -0.021774   0.649930  -0.022592
    21  H   -0.022596  -0.022592   0.646688
 Mulliken charges:
               1
     1  C   -0.035464
     2  C   -0.227283
     3  C   -0.035305
     4  C   -0.039540
     5  C   -0.074677
     6  C   -0.039388
     7  H    0.034578
     8  H    0.026666
     9  H    0.022726
    10  H    0.034576
    11  H    0.026494
    12  H    0.037312
    13  H    0.039220
    14  H    0.028431
    15  H    0.026498
    16  H    0.037328
    17  H    0.022751
    18  C    0.045677
    19  H    0.024421
    20  H    0.024422
    21  H    0.020556
 Sum of Mulliken charges =  -0.00000
 Mulliken charges with hydrogens summed into heavy atoms:
               1
     1  C    0.021839
     2  C   -0.200617
     3  C    0.022024
     4  C    0.024266
     5  C   -0.007026
     6  C    0.024438
    18  C    0.115075
 Electronic spatial extent (au):  <R**2>=            844.9127
 Charge=             -0.0000 electrons
 Dipole moment (field-independent basis, Debye):
    X=             -0.0091    Y=              0.0000    Z=             -0.0583  Tot=              0.0591
 Quadrupole moment (field-independent basis, Debye-Ang):
   XX=            -48.0111   YY=            -47.3607   ZZ=            -46.4844
   XY=             -0.0006   XZ=             -0.2691   YZ=             -0.0002
 Traceless Quadrupole moment (field-independent basis, Debye-Ang):
   XX=             -0.7257   YY=             -0.0753   ZZ=              0.8010
   XY=             -0.0006   XZ=             -0.2691   YZ=             -0.0002
 Octapole moment (field-independent basis, Debye-Ang**2):
  XXX=             -1.5367  YYY=             -0.0030  ZZZ=              0.2962  XYY=              1.1511
  XXY=             -0.0042  XXZ=             -1.3084  XZZ=              0.3701  YZZ=              0.0040
  YYZ=             -0.3290  XYZ=             -0.0006
 Hexadecapole moment (field-independent basis, Debye-Ang**3):
 XXXX=           -700.5907 YYYY=           -372.4840 ZZZZ=           -117.3199 XXXY=              0.0009
 XXXZ=             -1.2982 YYYX=             -0.0017 YYYZ=             -0.0000 ZZZX=              1.2139
 ZZZY=             -0.0018 XXYY=           -175.1011 XXZZ=           -135.2400 YYZZ=            -82.8792
 XXYZ=             -0.0000 YYXZ=             -4.4778 ZZXY=             -0.0027
 N-N= 3.304154669795D+02 E-N=-1.294542360741D+03  KE= 2.714107417495D+02
   1 Symmetry operations used in ECPInt.
 ECPInt:  NShTT=    3570 NPrTT=   12068 LenC2=    3565 LenP2D=   10214.
 LDataN:  DoStor=T MaxTD1= 5 Len=  102
 Calling FoFJK, ICntrl=      2127 FMM=F ISym2X=0 I1Cent= 0 IOpClX= 0 NMat=1 NMatS=1 NMatT=0.
 ***** Axes restored to original set *****
 -------------------------------------------------------------------
 Center     Atomic                   Forces (Hartrees/Bohr)
 Number     Number              X              Y              Z
 -------------------------------------------------------------------
      1        6          -0.010115651   -0.002571633   -0.010726378
      2        6          -0.016388980   -0.013354870    0.011241572
      3        6           0.006332435   -0.002232005    0.013177820
      4        6           0.015196037    0.009005314    0.011102932
      5        6           0.015478958    0.006456626   -0.010519226
      6        6          -0.004729008    0.009203115   -0.018301284
      7        1           0.000918483   -0.003414131   -0.011344524
      8        1           0.007169532   -0.005943988   -0.004887787
      9        1          -0.004530353    0.008244625    0.004037585
     10        1           0.010922531   -0.003432312    0.003277195
     11        1           0.004845617   -0.009293781   -0.003331669
     12        1          -0.011542012    0.003489323   -0.002816692
     13        1          -0.003988214   -0.011529056    0.002712003
     14        1          -0.004828657    0.009079803    0.003291087
     15        1           0.004885470   -0.009289267   -0.003254899
     16        1          -0.001596441    0.003541859    0.011798674
     17        1          -0.005394693    0.008206742    0.002755262
     18        6           0.010711433    0.027991655   -0.007318065
     19        1          -0.001865348   -0.002769411    0.021013045
     20        1          -0.020249815   -0.002774343   -0.005923189
     21        1           0.008768675   -0.018614267   -0.005983463
 -------------------------------------------------------------------
 Cartesian Forces:  Max     0.027991655 RMS     0.009780461

 GradGradGradGradGradGradGradGradGradGradGradGradGradGradGradGradGradGrad
 Berny optimization.
 FormGI is forming the generalized inverse of G from B-inverse, IUseBI=4.
 Internal  Forces:  Max     0.021365740 RMS     0.005206987
 Search for a local minimum.
 Step number   1 out of a maximum of  126
 All quantities printed in internal units (Hartrees-Bohrs-Radians)
 Mixed Optimization -- RFO/linear search
 Second derivative matrix not updated -- first step.
 ITU=  0
     Eigenvalues ---    0.00237   0.00748   0.00754   0.00847   0.02116
     Eigenvalues ---    0.02121   0.03859   0.03932   0.04158   0.04370
     Eigenvalues ---    0.04765   0.04910   0.04966   0.05013   0.05659
     Eigenvalues ---    0.05666   0.05720   0.05720   0.06088   0.06521
     Eigenvalues ---    0.08175   0.08179   0.08186   0.08188   0.08199
     Eigenvalues ---    0.08427   0.08698   0.12082   0.12094   0.14201
     Eigenvalues ---    0.15660   0.16000   0.16000   0.16000   0.17362
     Eigenvalues ---    0.20659   0.28519   0.28806   0.29166   0.29311
     Eigenvalues ---    0.30833   0.30841   0.30842   0.31380   0.31384
     Eigenvalues ---    0.31385   0.31386   0.31386   0.31394   0.31465
     Eigenvalues ---    0.31467   0.31470   0.31472   0.31476   0.37230
     Eigenvalues ---    0.37230   0.37230
 RFO step:  Lambda=-1.16018429D-02 EMin= 2.36824211D-03
 Linear search not attempted -- first point.
 Iteration  1 RMS(Cart)=  0.02688830 RMS(Int)=  0.00036212
 Iteration  2 RMS(Cart)=  0.00031635 RMS(Int)=  0.00020204
 Iteration  3 RMS(Cart)=  0.00000012 RMS(Int)=  0.00020204
 Variable       Old X    -DE/DX   Delta X   Delta X   Delta X     New X
                                 (Linear)    (Quad)   (Total)
    R1        2.86314   0.00934   0.00000   0.02988   0.03003   2.89317
    R2        2.86291   0.00955   0.00000   0.02982   0.02982   2.89273
    R3        2.11985  -0.01019   0.00000  -0.03130  -0.03130   2.08855
    R4        2.11825  -0.01157   0.00000  -0.03544  -0.03544   2.08281
    R5        2.86327   0.00929   0.00000   0.02976   0.02991   2.89319
    R6        2.11983  -0.00991   0.00000  -0.03046  -0.03046   2.08937
    R7        2.91018  -0.00119   0.00000  -0.00402  -0.00402   2.90616
    R8        2.86376   0.00929   0.00000   0.02906   0.02906   2.89281
    R9        2.11814  -0.01154   0.00000  -0.03536  -0.03536   2.08278
   R10        2.11967  -0.01015   0.00000  -0.03117  -0.03117   2.08850
   R11        2.86317   0.00834   0.00000   0.02538   0.02522   2.88840
   R12        2.11982  -0.01098   0.00000  -0.03373  -0.03373   2.08609
   R13        2.11821  -0.01199   0.00000  -0.03675  -0.03675   2.08146
   R14        2.86307   0.00839   0.00000   0.02549   0.02534   2.88841
   R15        2.11830  -0.01214   0.00000  -0.03721  -0.03721   2.08109
   R16        2.11992  -0.01078   0.00000  -0.03313  -0.03313   2.08680
   R17        2.11982  -0.01097   0.00000  -0.03370  -0.03370   2.08612
   R18        2.11834  -0.01203   0.00000  -0.03687  -0.03687   2.08148
   R19        2.02201   0.02101   0.00000   0.05472   0.05472   2.07673
   R20        2.02201   0.02101   0.00000   0.05473   0.05473   2.07673
   R21        2.02201   0.02137   0.00000   0.05565   0.05565   2.07766
    A1        1.94271   0.00341   0.00000   0.02392   0.02409   1.96680
    A2        1.90946  -0.00160   0.00000  -0.01697  -0.01703   1.89244
    A3        1.91248  -0.00106   0.00000   0.00075   0.00024   1.91272
    A4        1.90952  -0.00075   0.00000  -0.00381  -0.00371   1.90581
    A5        1.91244   0.00019   0.00000   0.00997   0.00966   1.92211
    A6        1.87599  -0.00032   0.00000  -0.01531  -0.01531   1.86068
    A7        1.94364  -0.00317   0.00000  -0.01054  -0.01143   1.93221
    A8        1.90933  -0.00092   0.00000  -0.02602  -0.02655   1.88278
    A9        1.91217   0.00297   0.00000   0.03067   0.03041   1.94258
   A10        1.90923  -0.00093   0.00000  -0.02606  -0.02659   1.88264
   A11        1.91225   0.00299   0.00000   0.03074   0.03047   1.94272
   A12        1.87595  -0.00087   0.00000   0.00144   0.00209   1.87803
   A13        1.94153   0.00352   0.00000   0.02459   0.02476   1.96628
   A14        1.91271  -0.00108   0.00000   0.00073   0.00022   1.91292
   A15        1.90983  -0.00164   0.00000  -0.01724  -0.01730   1.89253
   A16        1.91264   0.00015   0.00000   0.00991   0.00959   1.92223
   A17        1.90967  -0.00078   0.00000  -0.00408  -0.00397   1.90569
   A18        1.87630  -0.00030   0.00000  -0.01536  -0.01537   1.86093
   A19        1.94195  -0.00032   0.00000   0.00489   0.00477   1.94672
   A20        1.90958  -0.00029   0.00000  -0.00626  -0.00624   1.90334
   A21        1.91265   0.00112   0.00000   0.01292   0.01281   1.92546
   A22        1.90980   0.00018   0.00000  -0.00620  -0.00615   1.90365
   A23        1.91244   0.00038   0.00000   0.00996   0.00978   1.92222
   A24        1.87623  -0.00109   0.00000  -0.01609  -0.01603   1.86020
   A25        1.94385   0.00046   0.00000   0.00193   0.00174   1.94559
   A26        1.91216   0.00067   0.00000   0.01155   0.01149   1.92365
   A27        1.90917  -0.00046   0.00000  -0.00526  -0.00524   1.90393
   A28        1.91227   0.00066   0.00000   0.01145   0.01139   1.92365
   A29        1.90924  -0.00046   0.00000  -0.00526  -0.00523   1.90401
   A30        1.87588  -0.00092   0.00000  -0.01507  -0.01503   1.86085
   A31        1.94248  -0.00037   0.00000   0.00469   0.00457   1.94705
   A32        1.90958  -0.00025   0.00000  -0.00600  -0.00598   1.90360
   A33        1.91233   0.00113   0.00000   0.01293   0.01283   1.92516
   A34        1.90974   0.00019   0.00000  -0.00613  -0.00608   1.90366
   A35        1.91241   0.00037   0.00000   0.00982   0.00964   1.92205
   A36        1.87608  -0.00110   0.00000  -0.01609  -0.01603   1.86005
   A37        1.91063   0.00387   0.00000   0.02355   0.02332   1.93396
   A38        1.91063   0.00387   0.00000   0.02358   0.02335   1.93399
   A39        1.91063   0.00073   0.00000   0.00228   0.00226   1.91289
   A40        1.91063  -0.00330   0.00000  -0.01520  -0.01561   1.89503
   A41        1.91063  -0.00259   0.00000  -0.01709  -0.01711   1.89352
   A42        1.91063  -0.00259   0.00000  -0.01710  -0.01712   1.89351
    D1       -0.96330   0.00302   0.00000   0.03658   0.03636  -0.92694
    D2        1.14929  -0.00081   0.00000  -0.02028  -0.02004   1.12926
    D3       -3.08159  -0.00067   0.00000  -0.01587  -0.01585  -3.09743
    D4        1.14914   0.00321   0.00000   0.03593   0.03565   1.18479
    D5       -3.02145  -0.00062   0.00000  -0.02093  -0.02075  -3.04220
    D6       -0.96914  -0.00048   0.00000  -0.01652  -0.01656  -0.98570
    D7       -3.08143   0.00127   0.00000   0.00789   0.00765  -3.07378
    D8       -0.96884  -0.00256   0.00000  -0.04897  -0.04875  -1.01759
    D9        1.08347  -0.00242   0.00000  -0.04456  -0.04456   1.03891
   D10        0.96137  -0.00053   0.00000  -0.01555  -0.01557   0.94580
   D11       -1.15128  -0.00037   0.00000  -0.00689  -0.00692  -1.15820
   D12        3.07920   0.00045   0.00000   0.00856   0.00858   3.08778
   D13       -1.15104  -0.00023   0.00000  -0.00719  -0.00724  -1.15828
   D14        3.01950  -0.00006   0.00000   0.00147   0.00141   3.02091
   D15        0.96679   0.00076   0.00000   0.01692   0.01691   0.98371
   D16        3.07952   0.00049   0.00000   0.00776   0.00787   3.08740
   D17        0.96688   0.00066   0.00000   0.01641   0.01652   0.98340
   D18       -1.08583   0.00148   0.00000   0.03187   0.03202  -1.05380
   D19        0.96442  -0.00301   0.00000  -0.03689  -0.03667   0.92775
   D20        3.08217  -0.00125   0.00000  -0.00788  -0.00763   3.07453
   D21       -1.14768  -0.00321   0.00000  -0.03618  -0.03589  -1.18357
   D22       -1.14823   0.00081   0.00000   0.01994   0.01970  -1.12854
   D23        0.96952   0.00257   0.00000   0.04895   0.04873   1.01825
   D24        3.02285   0.00062   0.00000   0.02066   0.02048   3.04333
   D25        3.08266   0.00067   0.00000   0.01552   0.01550   3.09816
   D26       -1.08277   0.00243   0.00000   0.04453   0.04454  -1.03824
   D27        0.97056   0.00047   0.00000   0.01623   0.01628   0.98684
   D28       -3.12008  -0.00040   0.00000   0.00820   0.00851  -3.11157
   D29       -1.02568   0.00031   0.00000   0.01843   0.01895  -1.00674
   D30        1.06871  -0.00004   0.00000   0.01332   0.01373   1.08244
   D31        1.02600  -0.00031   0.00000  -0.01843  -0.01895   1.00706
   D32        3.12040   0.00039   0.00000  -0.00820  -0.00851   3.11189
   D33       -1.06839   0.00004   0.00000  -0.01331  -0.01372  -1.08211
   D34       -1.04699  -0.00035   0.00000  -0.00511  -0.00521  -1.05221
   D35        1.04740   0.00035   0.00000   0.00512   0.00523   1.05263
   D36       -3.14139   0.00000   0.00000   0.00001   0.00001  -3.14138
   D37       -0.96406   0.00057   0.00000   0.01650   0.01653  -0.94753
   D38        1.14832   0.00039   0.00000   0.00772   0.00775   1.15607
   D39       -3.08180  -0.00045   0.00000  -0.00790  -0.00791  -3.08971
   D40       -3.08185  -0.00048   0.00000  -0.00714  -0.00726  -3.08911
   D41       -0.96948  -0.00065   0.00000  -0.01593  -0.01604  -0.98551
   D42        1.08359  -0.00149   0.00000  -0.03154  -0.03170   1.05189
   D43        1.14814   0.00026   0.00000   0.00807   0.00812   1.15626
   D44       -3.02267   0.00008   0.00000  -0.00071  -0.00066  -3.02333
   D45       -0.96960  -0.00075   0.00000  -0.01633  -0.01632  -0.98593
   D46        0.96409  -0.00138   0.00000  -0.01680  -0.01687   0.94722
   D47        3.08253   0.00020   0.00000   0.00666   0.00666   3.08918
   D48       -1.14854  -0.00079   0.00000  -0.00794  -0.00796  -1.15650
   D49       -1.14816  -0.00093   0.00000  -0.00799  -0.00804  -1.15620
   D50        0.97028   0.00065   0.00000   0.01547   0.01549   0.98576
   D51        3.02240  -0.00034   0.00000   0.00088   0.00087   3.02327
   D52        3.08195   0.00007   0.00000   0.00933   0.00931   3.09126
   D53       -1.08279   0.00165   0.00000   0.03279   0.03283  -1.04996
   D54        0.96933   0.00066   0.00000   0.01819   0.01821   0.98754
   D55       -0.96260   0.00135   0.00000   0.01621   0.01628  -0.94632
   D56        1.14995   0.00093   0.00000   0.00763   0.00769   1.15764
   D57       -3.08039  -0.00007   0.00000  -0.00972  -0.00970  -3.09008
   D58       -3.08097  -0.00023   0.00000  -0.00731  -0.00731  -3.08828
   D59       -0.96842  -0.00066   0.00000  -0.01589  -0.01590  -0.98432
   D60        1.08442  -0.00166   0.00000  -0.03324  -0.03328   1.05114
   D61        1.14999   0.00077   0.00000   0.00734   0.00737   1.15735
   D62       -3.02065   0.00034   0.00000  -0.00123  -0.00123  -3.02187
   D63       -0.96781  -0.00066   0.00000  -0.01859  -0.01861  -0.98641
         Item               Value     Threshold  Converged?
 Maximum Force            0.021366     0.000450     NO 
 RMS     Force            0.005207     0.000300     NO 
 Maximum Displacement     0.111493     0.001800     NO 
 RMS     Displacement     0.026903     0.001200     NO 
 Predicted change in Energy=-6.163276D-03
 GradGradGradGradGradGradGradGradGradGradGradGradGradGradGradGradGradGrad

                          Input orientation:                          
 ---------------------------------------------------------------------
 Center     Atomic      Atomic             Coordinates (Angstroms)
 Number     Number       Type             X           Y           Z
 ---------------------------------------------------------------------
      1          6           0       -0.001454    0.003577   -0.008996
      2          6           0       -0.009763   -0.028878    1.521636
      3          6           0        1.418683    0.004100    2.071585
      4          6           0        2.237381    1.172596    1.516851
      5          6           0        2.236522    1.182729   -0.011589
      6          6           0        0.813912    1.171148   -0.570427
      7          1           0        1.390120    0.049676    3.172430
      8          1           0       -0.531313    0.878754    1.877511
      9          1           0        0.425279   -0.947462   -0.376310
     10          1           0       -1.037106    0.049562   -0.383294
     11          1           0        1.807076    2.120543    1.884082
     12          1           0        3.270931    1.129157    1.895147
     13          1           0        2.785613    2.060571   -0.386661
     14          1           0        2.776137    0.292035   -0.378913
     15          1           0        0.314792    2.119650   -0.306083
     16          1           0        0.839293    1.125469   -1.670657
     17          1           0        1.916940   -0.946337    1.807308
     18          6           0       -0.784199   -1.247777    2.050398
     19          1           0       -0.811133   -1.246618    3.149023
     20          1           0       -1.817004   -1.247065    1.674865
     21          1           0       -0.291738   -2.171652    1.714646
 ---------------------------------------------------------------------
                    Distance matrix (angstroms):
                    1          2          3          4          5
     1  C    0.000000
     2  C    1.530999   0.000000
     3  C    2.519048   1.531009   0.000000
     4  C    2.950796   2.548179   1.530810   0.000000
     5  C    2.529613   2.977342   2.529356   1.528474   0.000000
     6  C    1.530768   2.548575   2.950928   2.526459   1.528481
     7  H    3.472762   2.165864   1.102159   2.172497   3.483990
     8  H    2.146065   1.105648   2.145966   2.807505   3.364820
     9  H    1.105213   2.152965   2.807937   3.370818   2.819811
    10  H    1.102175   2.165721   3.472664   3.948926   3.484089
    11  H    3.366908   2.837654   2.159940   1.103914   2.158121
    12  H    3.949835   3.499072   2.174329   1.101463   2.169912
    13  H    3.484480   3.977628   3.484329   2.170810   1.101266
    14  H    2.816924   3.387670   2.816119   2.158602   1.104286
    15  H    2.160102   2.839378   3.368595   2.813600   2.158146
    16  H    2.174078   3.499164   3.949372   3.480959   2.169801
    17  H    2.807407   2.153027   1.105184   2.162620   2.818411
    18  C    2.533708   1.537873   2.533837   3.908045   4.391344
    19  H    3.491654   2.184828   2.774391   4.220192   5.017908
    20  H    2.774115   2.184853   3.491772   4.724168   5.017878
    21  H    2.790489   2.169849   2.790491   4.197566   4.541350
                    6          7          8          9         10
     6  C    0.000000
     7  H    3.949519   0.000000
     8  H    2.808474   2.460913   0.000000
     9  H    2.162689   3.810350   3.054480   0.000000
    10  H    2.172382   4.305183   2.460615   1.769937   0.000000
    11  H    2.812888   2.474305   2.647668   4.053565   4.185610
    12  H    3.481058   2.516779   3.810521   4.191611   4.991593
    13  H    2.170818   4.319518   4.186307   3.823552   4.319416
    14  H    2.158667   3.819924   4.046593   2.657610   3.820947
    15  H    1.103927   4.188219   2.650246   3.069905   2.473632
    16  H    1.101470   4.991617   3.811683   2.478666   2.517092
    17  H    3.369576   1.770068   3.054477   2.644474   3.810111
    18  C    3.908181   2.769477   2.148482   2.727992   2.769459
    19  H    4.724476   2.554690   2.492438   3.747824   3.769404
    20  H    4.220286   3.769600   2.492624   3.053673   2.554506
    21  H    4.197420   3.144532   3.064131   2.526827   3.144951
                   11         12         13         14         15
    11  H    0.000000
    12  H    1.768005   0.000000
    13  H    2.473339   2.511915   0.000000
    14  H    3.066540   2.473246   1.768579   0.000000
    15  H    2.650233   3.816445   2.472841   3.066545   0.000000
    16  H    3.816143   4.315998   2.512215   2.472768   1.767925
    17  H    3.069808   2.479653   3.822249   2.655437   4.053835
    18  C    4.252992   4.702977   5.443159   4.576960   4.254450
    19  H    4.448918   4.886692   6.031181   5.261396   4.953507
    20  H    4.951617   5.619790   6.031122   5.261538   4.450110
    21  H    4.780865   4.860096   5.638909   4.456972   4.781893
                   16         17         18         19         20
    16  H    0.000000
    17  H    4.189266   0.000000
    18  C    4.702581   2.728756   0.000000
    19  H    5.619610   3.054955   1.098956   0.000000
    20  H    4.886445   3.748376   1.098960   1.784634   0.000000
    21  H    4.859065   2.527498   1.099451   1.784067   1.784063
                   21
    21  H    0.000000
 Stoichiometry    C7H14
 Framework group  C1[X(C7H14)]
 Deg. of freedom    57
 Full point group                 C1      NOp   1
 Largest Abelian subgroup         C1      NOp   1
 Largest concise Abelian subgroup C1      NOp   1
                         Standard orientation:                         
 ---------------------------------------------------------------------
 Center     Atomic      Atomic             Coordinates (Angstroms)
 Number     Number       Type             X           Y           Z
 ---------------------------------------------------------------------
      1          6           0        0.294318    1.259526    0.151329
      2          6           0        1.014922   -0.000151   -0.336423
      3          6           0        0.294233   -1.259522    0.152023
      4          6           0       -1.194317   -1.263185   -0.205169
      5          6           0       -1.894615   -0.000142    0.295368
      6          6           0       -1.194510    1.263274   -0.204516
      7          1           0        0.786773   -2.152793   -0.265382
      8          1           0        0.987143   -0.000545   -1.441722
      9          1           0        0.405711    1.322827    1.249090
     10          1           0        0.786594    2.152390   -0.267297
     11          1           0       -1.301540   -1.324402   -1.302157
     12          1           0       -1.684881   -2.158168    0.209044
     13          1           0       -2.950029   -0.000144   -0.019100
     14          1           0       -1.894089   -0.000479    1.399654
     15          1           0       -1.303014    1.325830   -1.301315
     16          1           0       -1.684591    2.157829    0.211211
     17          1           0        0.404485   -1.321647    1.249938
     18          6           0        2.492003    0.000041    0.091696
     19          1           0        3.008723   -0.892295   -0.288359
     20          1           0        3.008601    0.892339   -0.288623
     21          1           0        2.557910    0.000214    1.189170
 ---------------------------------------------------------------------
 Rotational constants (GHZ):           4.2014799           2.1811009           1.5844828
 Standard basis: def2SVP (5D, 7F)
 There are   175 symmetry adapted cartesian basis functions of A   symmetry.
 There are   168 symmetry adapted basis functions of A   symmetry.
   168 basis functions,   273 primitive gaussians,   175 cartesian basis functions
    28 alpha electrons       28 beta electrons
       nuclear repulsion energy       328.1345099841 Hartrees.
 NAtoms=   21 NActive=   21 NUniq=   21 SFac= 1.00D+00 NAtFMM=   60 NAOKFM=F Big=F
 Integral buffers will be    131072 words long.
 Raffenetti 2 integral format.
 Two-electron integral symmetry is turned on.
 One-electron integrals computed using PRISM.
   1 Symmetry operations used in ECPInt.
 ECPInt:  NShTT=    3570 NPrTT=   12068 LenC2=    3562 LenP2D=   10179.
 LDataN:  DoStor=T MaxTD1= 4 Len=   56
 NBasis=   168 RedAO= T EigKep=  1.44D-03  NBF=   168
 NBsUse=   168 1.00D-06 EigRej= -1.00D+00 NBFU=   168
 Initial guess from the checkpoint file:  "eqMeCyhex.chk"
 B after Tr=    -0.000000   -0.000000   -0.000000
         Rot=    1.000000    0.000004    0.000414    0.000022 Ang=   0.05 deg.
 ExpMin= 1.22D-01 ExpMax= 1.24D+03 ExpMxC= 1.86D+02 IAcc=3 IRadAn=         5 AccDes= 0.00D+00
 Harris functional with IExCor= 1009 and IRadAn=       5 diagonalized for initial guess.
 HarFok:  IExCor= 1009 AccDes= 0.00D+00 IRadAn=         5 IDoV= 1 UseB2=F ITyADJ=14
 ICtDFT=  3500011 ScaDFX=  1.000000  1.000000  1.000000  1.000000
 FoFCou: FMM=F IPFlag=           0 FMFlag=      100000 FMFlg1=           0
         NFxFlg=           0 DoJE=T BraDBF=F KetDBF=T FulRan=T
         wScrn=  0.000000 ICntrl=       500 IOpCl=  0 I1Cent=   200000004 NGrid=           0
         NMat0=    1 NMatS0=      1 NMatT0=    0 NMatD0=    1 NMtDS0=    0 NMtDT0=    0
 Petite list used in FoFCou.
 Requested convergence on RMS density matrix=1.00D-08 within 128 cycles.
 Requested convergence on MAX density matrix=1.00D-06.
 Requested convergence on             energy=1.00D-06.
 No special actions if energy rises.
 Integral accuracy reduced to 1.0D-05 until final iterations.
 Initial convergence to 1.0D-05 achieved.  Increase integral accuracy.
 SCF Done:  E(RM062X) =  -274.840930285     A.U. after   10 cycles
            NFock= 10  Conv=0.86D-08     -V/T= 2.0128
   1 Symmetry operations used in ECPInt.
 ECPInt:  NShTT=    3570 NPrTT=   12068 LenC2=    3562 LenP2D=   10179.
 LDataN:  DoStor=T MaxTD1= 5 Len=  102
 Calling FoFJK, ICntrl=      2127 FMM=F ISym2X=0 I1Cent= 0 IOpClX= 0 NMat=1 NMatS=1 NMatT=0.
 ***** Axes restored to original set *****
 -------------------------------------------------------------------
 Center     Atomic                   Forces (Hartrees/Bohr)
 Number     Number              X              Y              Z
 -------------------------------------------------------------------
      1        6           0.000368916    0.000547913   -0.001031092
      2        6          -0.004009202   -0.003847380    0.002751417
      3        6           0.001098800    0.000608400   -0.000009408
      4        6          -0.000865763   -0.000080814    0.000226843
      5        6           0.000478454   -0.000195815   -0.000314084
      6        6          -0.000512770   -0.000042692    0.000690767
      7        1           0.000247018   -0.000586972   -0.000241125
      8        1           0.000822457    0.001179576   -0.000565784
      9        1           0.000247983   -0.000241359   -0.000029486
     10        1           0.000322534   -0.000584666   -0.000149249
     11        1          -0.000220351    0.000037493   -0.000071326
     12        1          -0.000760377    0.000010712    0.000281062
     13        1           0.000044667   -0.000563869   -0.000038056
     14        1          -0.000182478   -0.000122712    0.000125339
     15        1          -0.000013558    0.000017141    0.000255188
     16        1          -0.000544376    0.000025482    0.000603571
     17        1           0.000121754   -0.000264953   -0.000198869
     18        6           0.004637499    0.007521563   -0.003162362
     19        1          -0.000302987   -0.000818807    0.000392723
     20        1          -0.000473889   -0.000816007    0.000139120
     21        1          -0.000504332   -0.001782234    0.000344809
 -------------------------------------------------------------------
 Cartesian Forces:  Max     0.007521563 RMS     0.001502829

 GradGradGradGradGradGradGradGradGradGradGradGradGradGradGradGradGradGrad
 Berny optimization.
 Using GEDIIS/GDIIS optimizer.
 FormGI is forming the generalized inverse of G from B-inverse, IUseBI=4.
 Internal  Forces:  Max     0.005727851 RMS     0.000650195
 Search for a local minimum.
 Step number   2 out of a maximum of  126
 All quantities printed in internal units (Hartrees-Bohrs-Radians)
 Mixed Optimization -- En-DIIS/RFO-DIIS
 Update second derivatives using D2CorX and points    1    2
 DE= -5.85D-03 DEPred=-6.16D-03 R= 9.50D-01
 TightC=F SS=  1.41D+00  RLast= 2.51D-01 DXNew= 5.0454D-01 7.5231D-01
 Trust test= 9.50D-01 RLast= 2.51D-01 DXMaxT set to 5.05D-01
 ITU=  1  0
 Use linear search instead of GDIIS.
     Eigenvalues ---    0.00237   0.00740   0.00746   0.00830   0.02063
     Eigenvalues ---    0.02091   0.03715   0.03796   0.03996   0.04373
     Eigenvalues ---    0.04632   0.04954   0.04989   0.05007   0.05479
     Eigenvalues ---    0.05617   0.05628   0.05702   0.06083   0.06638
     Eigenvalues ---    0.08247   0.08256   0.08264   0.08420   0.08434
     Eigenvalues ---    0.08566   0.08812   0.12141   0.12225   0.14335
     Eigenvalues ---    0.15679   0.16000   0.16006   0.16169   0.17500
     Eigenvalues ---    0.20879   0.27324   0.28901   0.29284   0.29312
     Eigenvalues ---    0.30731   0.30841   0.30980   0.31359   0.31383
     Eigenvalues ---    0.31385   0.31386   0.31392   0.31396   0.31465
     Eigenvalues ---    0.31468   0.31470   0.31474   0.33091   0.37014
     Eigenvalues ---    0.37230   0.37452
 RFO step:  Lambda=-4.08846789D-04 EMin= 2.36824211D-03
 Quartic linear search produced a step of  0.01439.
 Iteration  1 RMS(Cart)=  0.01307629 RMS(Int)=  0.00008491
 Iteration  2 RMS(Cart)=  0.00009935 RMS(Int)=  0.00002354
 Iteration  3 RMS(Cart)=  0.00000000 RMS(Int)=  0.00002354
 Variable       Old X    -DE/DX   Delta X   Delta X   Delta X     New X
                                 (Linear)    (Quad)   (Total)
    R1        2.89317  -0.00007   0.00043  -0.00000   0.00042   2.89358
    R2        2.89273  -0.00134   0.00043  -0.00401  -0.00359   2.88915
    R3        2.08855   0.00031  -0.00045   0.00057   0.00012   2.08867
    R4        2.08281  -0.00028  -0.00051  -0.00139  -0.00190   2.08091
    R5        2.89319  -0.00009   0.00043  -0.00004   0.00038   2.89357
    R6        2.08937   0.00040  -0.00044   0.00086   0.00042   2.08979
    R7        2.90616  -0.00573  -0.00006  -0.02039  -0.02045   2.88571
    R8        2.89281  -0.00137   0.00042  -0.00409  -0.00367   2.88915
    R9        2.08278  -0.00027  -0.00051  -0.00137  -0.00188   2.08090
   R10        2.08850   0.00033  -0.00045   0.00063   0.00018   2.08868
   R11        2.88840  -0.00006   0.00036   0.00034   0.00071   2.88911
   R12        2.08609   0.00010  -0.00049  -0.00016  -0.00065   2.08545
   R13        2.08146  -0.00062  -0.00053  -0.00250  -0.00303   2.07844
   R14        2.88841  -0.00006   0.00036   0.00033   0.00071   2.88912
   R15        2.08109  -0.00041  -0.00054  -0.00185  -0.00239   2.07871
   R16        2.08680  -0.00003  -0.00048  -0.00057  -0.00105   2.08575
   R17        2.08612   0.00008  -0.00049  -0.00020  -0.00069   2.08543
   R18        2.08148  -0.00062  -0.00053  -0.00250  -0.00303   2.07845
   R19        2.07673   0.00040   0.00079   0.00185   0.00264   2.07936
   R20        2.07673   0.00040   0.00079   0.00185   0.00263   2.07937
   R21        2.07766   0.00117   0.00080   0.00396   0.00476   2.08242
    A1        1.96680  -0.00058   0.00035  -0.00807  -0.00781   1.95899
    A2        1.89244   0.00021  -0.00025   0.00147   0.00124   1.89367
    A3        1.91272   0.00017   0.00000   0.00276   0.00280   1.91552
    A4        1.90581   0.00029  -0.00005   0.00204   0.00201   1.90781
    A5        1.92211   0.00015   0.00014   0.00328   0.00346   1.92556
    A6        1.86068  -0.00022  -0.00022  -0.00114  -0.00138   1.85930
    A7        1.93221   0.00047  -0.00016  -0.00516  -0.00542   1.92679
    A8        1.88278  -0.00023  -0.00038  -0.00321  -0.00362   1.87916
    A9        1.94258  -0.00032   0.00044   0.00056   0.00103   1.94361
   A10        1.88264  -0.00022  -0.00038  -0.00313  -0.00354   1.87910
   A11        1.94272  -0.00033   0.00044   0.00050   0.00098   1.94370
   A12        1.87803   0.00063   0.00003   0.01066   0.01068   1.88872
   A13        1.96628  -0.00056   0.00036  -0.00781  -0.00753   1.95875
   A14        1.91292   0.00017   0.00000   0.00266   0.00270   1.91562
   A15        1.89253   0.00020  -0.00025   0.00137   0.00114   1.89367
   A16        1.92223   0.00015   0.00014   0.00328   0.00345   1.92568
   A17        1.90569   0.00029  -0.00006   0.00210   0.00206   1.90775
   A18        1.86093  -0.00022  -0.00022  -0.00130  -0.00154   1.85939
   A19        1.94672   0.00015   0.00007  -0.00444  -0.00444   1.94228
   A20        1.90334   0.00011  -0.00009   0.00125   0.00118   1.90453
   A21        1.92546  -0.00048   0.00018  -0.00249  -0.00228   1.92318
   A22        1.90365  -0.00005  -0.00009   0.00134   0.00126   1.90491
   A23        1.92222   0.00024   0.00014   0.00410   0.00426   1.92648
   A24        1.86020   0.00002  -0.00023   0.00049   0.00025   1.86044
   A25        1.94559  -0.00028   0.00003  -0.00558  -0.00562   1.93997
   A26        1.92365   0.00005   0.00017   0.00262   0.00281   1.92647
   A27        1.90393   0.00014  -0.00008   0.00028   0.00021   1.90414
   A28        1.92365   0.00005   0.00016   0.00257   0.00275   1.92641
   A29        1.90401   0.00013  -0.00008   0.00025   0.00019   1.90419
   A30        1.86085  -0.00008  -0.00022   0.00008  -0.00014   1.86071
   A31        1.94705   0.00014   0.00007  -0.00461  -0.00462   1.94244
   A32        1.90360   0.00011  -0.00009   0.00111   0.00104   1.90464
   A33        1.92516  -0.00047   0.00018  -0.00235  -0.00214   1.92302
   A34        1.90366  -0.00004  -0.00009   0.00137   0.00129   1.90495
   A35        1.92205   0.00024   0.00014   0.00417   0.00433   1.92638
   A36        1.86005   0.00002  -0.00023   0.00058   0.00034   1.86039
   A37        1.93396   0.00072   0.00034   0.00479   0.00510   1.93906
   A38        1.93399   0.00071   0.00034   0.00476   0.00507   1.93905
   A39        1.91289   0.00177   0.00003   0.01131   0.01131   1.92420
   A40        1.89503  -0.00078  -0.00022  -0.00535  -0.00559   1.88944
   A41        1.89352  -0.00126  -0.00025  -0.00811  -0.00839   1.88513
   A42        1.89351  -0.00126  -0.00025  -0.00810  -0.00838   1.88513
    D1       -0.92694  -0.00035   0.00052  -0.02120  -0.02066  -0.94760
    D2        1.12926  -0.00049  -0.00029  -0.02981  -0.03008   1.09918
    D3       -3.09743  -0.00004  -0.00023  -0.01850  -0.01872  -3.11615
    D4        1.18479  -0.00022   0.00051  -0.02279  -0.02228   1.16251
    D5       -3.04220  -0.00035  -0.00030  -0.03139  -0.03170  -3.07390
    D6       -0.98570   0.00010  -0.00024  -0.02008  -0.02033  -1.00604
    D7       -3.07378  -0.00027   0.00011  -0.02183  -0.02170  -3.09548
    D8       -1.01759  -0.00040  -0.00070  -0.03043  -0.03112  -1.04871
    D9        1.03891   0.00005  -0.00064  -0.01912  -0.01976   1.01915
   D10        0.94580   0.00021  -0.00022   0.01759   0.01734   0.96314
   D11       -1.15820   0.00010  -0.00010   0.01808   0.01797  -1.14022
   D12        3.08778   0.00028   0.00012   0.01807   0.01818   3.10596
   D13       -1.15828   0.00013  -0.00010   0.01958   0.01947  -1.13881
   D14        3.02091   0.00002   0.00002   0.02007   0.02011   3.04102
   D15        0.98371   0.00020   0.00024   0.02006   0.02031   1.00402
   D16        3.08740   0.00014   0.00011   0.01788   0.01797   3.10537
   D17        0.98340   0.00003   0.00024   0.01837   0.01860   1.00200
   D18       -1.05380   0.00021   0.00046   0.01836   0.01881  -1.03500
   D19        0.92775   0.00035  -0.00053   0.02079   0.02024   0.94799
   D20        3.07453   0.00027  -0.00011   0.02153   0.02140   3.09594
   D21       -1.18357   0.00020  -0.00052   0.02219   0.02167  -1.16190
   D22       -1.12854   0.00049   0.00028   0.02944   0.02971  -1.09883
   D23        1.01825   0.00041   0.00070   0.03018   0.03087   1.04912
   D24        3.04333   0.00034   0.00029   0.03084   0.03114   3.07447
   D25        3.09816   0.00004   0.00022   0.01811   0.01833   3.11649
   D26       -1.03824  -0.00004   0.00064   0.01885   0.01949  -1.01874
   D27        0.98684  -0.00011   0.00023   0.01952   0.01976   1.00661
   D28       -3.11157   0.00008   0.00012  -0.00281  -0.00271  -3.11428
   D29       -1.00674   0.00005   0.00027  -0.00319  -0.00294  -1.00968
   D30        1.08244   0.00007   0.00020  -0.00301  -0.00283   1.07961
   D31        1.00706  -0.00005  -0.00027   0.00311   0.00286   1.00992
   D32        3.11189  -0.00008  -0.00012   0.00273   0.00263   3.11452
   D33       -1.08211  -0.00007  -0.00020   0.00291   0.00274  -1.07938
   D34       -1.05221   0.00001  -0.00008   0.00012   0.00005  -1.05216
   D35        1.05263  -0.00001   0.00008  -0.00026  -0.00019   1.05244
   D36       -3.14138  -0.00000   0.00000  -0.00008  -0.00008  -3.14146
   D37       -0.94753  -0.00021   0.00024  -0.01670  -0.01644  -0.96397
   D38        1.15607  -0.00009   0.00011  -0.01701  -0.01690   1.13917
   D39       -3.08971  -0.00028  -0.00011  -0.01711  -0.01721  -3.10692
   D40       -3.08911  -0.00013  -0.00010  -0.01705  -0.01714  -3.10625
   D41       -0.98551  -0.00002  -0.00023  -0.01736  -0.01759  -1.00310
   D42        1.05189  -0.00020  -0.00046  -0.01746  -0.01791   1.03398
   D43        1.15626  -0.00012   0.00012  -0.01860  -0.01847   1.13778
   D44       -3.02333  -0.00001  -0.00001  -0.01891  -0.01893  -3.04226
   D45       -0.98593  -0.00019  -0.00023  -0.01900  -0.01925  -1.00517
   D46        0.94722   0.00039  -0.00024   0.01355   0.01330   0.96052
   D47        3.08918   0.00030   0.00010   0.01482   0.01491   3.10409
   D48       -1.15650   0.00031  -0.00011   0.01659   0.01648  -1.14002
   D49       -1.15620   0.00018  -0.00012   0.01392   0.01381  -1.14240
   D50        0.98576   0.00009   0.00022   0.01519   0.01541   1.00117
   D51        3.02327   0.00010   0.00001   0.01695   0.01698   3.04025
   D52        3.09126   0.00005   0.00013   0.01020   0.01032   3.10158
   D53       -1.04996  -0.00004   0.00047   0.01147   0.01193  -1.03804
   D54        0.98754  -0.00003   0.00026   0.01324   0.01350   1.00104
   D55       -0.94632  -0.00039   0.00023  -0.01401  -0.01377  -0.96009
   D56        1.15764  -0.00020   0.00011  -0.01465  -0.01455   1.14310
   D57       -3.09008  -0.00006  -0.00014  -0.01077  -0.01090  -3.10098
   D58       -3.08828  -0.00030  -0.00011  -0.01532  -0.01541  -3.10369
   D59       -0.98432  -0.00010  -0.00023  -0.01595  -0.01619  -1.00051
   D60        1.05114   0.00003  -0.00048  -0.01207  -0.01254   1.03860
   D61        1.15735  -0.00031   0.00011  -0.01704  -0.01693   1.14042
   D62       -3.02187  -0.00011  -0.00002  -0.01767  -0.01770  -3.03958
   D63       -0.98641   0.00002  -0.00027  -0.01379  -0.01406  -1.00047
         Item               Value     Threshold  Converged?
 Maximum Force            0.005728     0.000450     NO 
 RMS     Force            0.000650     0.000300     NO 
 Maximum Displacement     0.046798     0.001800     NO 
 RMS     Displacement     0.013115     0.001200     NO 
 Predicted change in Energy=-2.087710D-04
 GradGradGradGradGradGradGradGradGradGradGradGradGradGradGradGradGradGrad

                          Input orientation:                          
 ---------------------------------------------------------------------
 Center     Atomic      Atomic             Coordinates (Angstroms)
 Number     Number       Type             X           Y           Z
 ---------------------------------------------------------------------
      1          6           0        0.006311   -0.004583   -0.011661
      2          6           0       -0.006516   -0.028967    1.519310
      3          6           0        1.423768   -0.003784    2.065447
      4          6           0        2.230991    1.173869    1.518664
      5          6           0        2.234290    1.182262   -0.010160
      6          6           0        0.809688    1.172648   -0.564974
      7          1           0        1.401516    0.025699    3.165993
      8          1           0       -0.514098    0.890563    1.865392
      9          1           0        0.447981   -0.950855   -0.373792
     10          1           0       -1.026661    0.024798   -0.392035
     11          1           0        1.788720    2.116321    1.884789
     12          1           0        3.260682    1.139658    1.903709
[...]
 0.02428311,-0.00036286,0.00963494,-0.00594559,0.04899717,-0.08523849,0
 .00241255,-0.07715056,-0.03159782,0.00209141,-0.01127052,0.00210974,-0
 .00000846,-0.00681308,0.00043690,0.00036825,-0.00008906,0.00129375,0.0
 0248660,-0.00074481,0.01262531,-0.00134908,0.00420416,-0.00198837,-0.0
 0015369,-0.00081769,0.00020904,-0.00040300,0.00109658,0.00993629,0.000
 14918,0.00310980,0.09241162,-0.00450810,0.08561158,-0.00007052,-0.0000
 5985,0.00003270,0.00152991,-0.00071380,-0.00036975,0.00658527,-0.01550
 658,-0.00596112,-0.09402634,0.09322995,0.03457029,-0.00114854,0.000337
 78,0.00036435,0.00068908,-0.00095233,-0.00050985,0.00057349,0.00074964
 ,-0.00018039,-0.00016459,0.00022071,0.00026154,-0.00010839,0.00013700,
 0.00009397,-0.00000440,0.00004406,-0.00002250,0.09720797,-0.00021944,0
 .00005043,0.00000789,0.00187242,0.00065308,-0.00028686,0.01061682,-0.0
 2282880,-0.00778970,0.09193836,-0.23353999,-0.07248408,-0.00026037,0.0
 0085138,0.00065141,-0.00000847,0.00012238,0.00049483,0.00011354,0.0007
 4734,0.00033372,-0.00116798,0.00042351,-0.00012269,0.00014153,0.000101
 29,0.00019405,-0.00005368,-0.00000685,-0.00008211,-0.09870564,0.254400
 88,-0.00010469,0.00010408,-0.00016552,-0.00032331,-0.00038083,0.000034
 03,-0.00530776,0.01167050,0.00356635,0.03382081,-0.07201724,-0.0735074
 0,0.01439695,-0.02881198,-0.01265157,0.00138581,-0.00072669,0.00178546
 ,-0.00062287,-0.00014479,0.00039622,-0.00002304,-0.00028354,0.00004318
 ,0.00010679,0.00019050,-0.00001023,-0.00007950,-0.00004679,0.00005409,
 -0.03996129,0.07686490,0.08269707,0.00033484,0.00022856,0.00045734,0.0
 0024763,-0.00345449,0.00228121,-0.01414301,0.00194318,-0.00542129,-0.2
 8445070,0.00923167,-0.08813269,0.00287104,0.00009696,0.00186007,0.0012
 0481,-0.00005354,0.00001816,0.00017737,0.00020738,0.00038601,0.0004223
 7,0.00001669,0.00009194,-0.00001435,-0.00005277,-0.00007613,-0.0000364
 3,0.00006131,-0.00005205,-0.01112615,0.00006019,-0.00400041,0.30403880
 ,0.00023347,-0.00002881,0.00033237,-0.00100438,-0.00424216,0.00281527,
 -0.02562262,0.00087480,-0.01013413,0.01086086,-0.04740103,0.00338483,0
 .00002091,-0.00115754,-0.00068560,-0.00000537,0.00049237,0.00050242,0.
 00067649,0.00089184,0.00004979,-0.00025172,0.00025434,0.00010880,0.000
 03768,-0.00000138,-0.00004955,0.00002224,0.00002912,-0.00007984,0.0244
 0288,-0.00046643,0.00975343,-0.00767088,0.04916962,0.00045865,0.000395
 40,-0.00009020,0.00115199,0.00237438,-0.00080956,0.01262738,-0.0014025
 9,0.00423664,-0.08706008,0.00276650,-0.07858179,-0.03202229,0.00135879
 ,-0.01032020,0.00226549,-0.00013953,-0.00695334,0.00000706,-0.00063752
 ,0.00033470,-0.00035001,0.00007307,-0.00009095,-0.00002600,-0.00008675
 ,0.00005580,-0.00004479,-0.00007235,0.00016636,0.00999968,0.00021987,0
 .00322194,0.09413632,-0.00493644,0.08652569,-0.00534848,0.00197672,-0.
 00343407,0.00024763,0.00019419,-0.00062493,0.00069156,0.00035773,-0.00
 039102,-0.00000170,0.00160830,-0.00033013,-0.11218641,-0.10563943,0.04
 520088,-0.01423542,-0.02498720,0.01109907,0.00026077,-0.00011480,-0.00
 016406,-0.00001966,0.00003753,0.00008486,0.00017936,-0.00007089,-0.000
 13207,-0.00101515,-0.00147457,0.00074370,-0.00005061,-0.00020493,0.000
 18158,0.00031367,0.00035123,0.00024877,0.12156852,-0.00012489,0.001024
 72,-0.00036483,0.00026652,-0.00006352,-0.00018209,0.00029320,0.0010233
 0,0.00024368,0.00186075,0.00140234,-0.00186850,-0.10739321,-0.22162033
 ,0.07336291,0.00240654,0.00138205,-0.00104332,-0.00032282,0.00006855,0
 .00001531,-0.00005105,-0.00000651,0.00003488,0.00021089,0.00045508,-0.
 00001047,-0.00013295,0.00006749,0.00029561,0.00010119,0.00065280,0.000
 38671,0.00013837,-0.00002087,0.00048026,0.11585448,0.23361517,-0.00275
 676,0.00038998,-0.00080638,-0.00062493,-0.00013271,-0.00024180,-0.0010
 6682,-0.00198852,-0.00684582,0.01666008,0.02746583,-0.01003313,0.04520
 182,0.07216650,-0.07689610,-0.00590621,-0.01151630,0.00421888,0.001242
 95,0.00153884,-0.00078898,0.00008490,-0.00002555,0.00004682,0.00015397
 ,0.00032632,-0.00009472,-0.00066378,-0.00045436,0.00048763,0.00027573,
 -0.00044324,0.00110604,-0.00054686,0.00005363,0.00104775,-0.04727780,-
 0.07913912,0.08465968,0.00161271,0.00167699,0.00052009,-0.00015996,-0.
 00020231,-0.00004872,-0.00015548,0.00057124,-0.00015207,0.00012695,-0.
 00096905,-0.00061958,-0.10576599,0.09957890,0.04125246,-0.01622770,0.0
 2565626,0.00966412,0.00007557,-0.00018843,-0.00005780,0.00015920,-0.00
 003833,-0.00022002,-0.00013995,-0.00110246,0.00001159,0.00044023,-0.00
 024082,-0.00035944,0.00098445,0.00005678,-0.00039032,0.00039137,-0.000
 49666,0.00020447,0.00762803,-0.01247853,-0.00577165,0.11556957,-0.0007
 7811,0.00093668,0.00009219,-0.00003858,0.00010712,0.00002614,-0.000370
 61,0.00093634,0.00069229,-0.00070343,-0.00049066,0.00011053,0.10087875
 ,-0.22200073,-0.06873265,-0.00037247,-0.00046933,0.00062270,-0.0000401
 1,0.00018730,-0.00005786,-0.00002315,-0.00016136,0.00001576,0.00029622
 ,0.00037749,-0.00031998,0.00003951,0.00018724,0.00005800,-0.00040683,0
 .00122838,0.00006923,-0.00017442,0.00021186,-0.00046807,0.01198027,-0.
 01908521,-0.00816405,-0.11090781,0.23620910,0.00054124,0.00004296,-0.0
 0001100,-0.00004865,0.00013784,-0.00019813,-0.00017153,-0.00157768,0.0
 0175765,0.01608571,-0.02793410,-0.01266613,0.04125195,-0.06784572,-0.0
 7333271,-0.00702723,0.01109152,0.00366862,-0.00050243,0.00018467,0.000
 27674,-0.00022010,0.00002620,-0.00001322,0.00028021,-0.00015967,0.0000
 4467,0.00008501,0.00010789,-0.00008806,0.00023039,0.00041014,-0.006664
 15,-0.00042571,0.00005139,0.00114827,-0.00578440,0.00852300,0.00310083
 ,-0.04195185,0.07557143,0.08257767,0.00779735,-0.01651420,-0.00481832,
 0.00046766,0.00009403,-0.00073855,-0.00012832,-0.00011893,-0.00012733,
 0.00134179,0.00033095,0.00164158,-0.01614588,0.02694836,0.00850459,-0.
 09955833,0.10115420,0.03163457,0.00008089,0.00005963,-0.00004613,-0.00
 006538,0.00034439,0.00001507,-0.00113456,-0.00325056,0.00179947,0.0006
 9299,0.00040747,-0.00057638,0.00031553,-0.00049421,-0.00091624,0.00017
 701,-0.00047745,0.00017358,0.00079697,-0.00032255,0.00051363,-0.005591
 79,-0.00021826,-0.00296662,0.11187117,0.01113392,-0.02282726,-0.007027
 21,0.00094898,0.00065269,-0.00163806,-0.00008757,0.00005056,0.00020115
 ,-0.00046337,0.00012291,-0.00017099,-0.00071406,0.00087176,0.00000965,
 0.10111806,-0.23355782,-0.05901503,0.00005692,-0.00000675,0.00007986,-
 0.00031156,0.00042405,0.00113171,-0.00316601,-0.00321847,0.00231107,-0
 .00026929,0.00074705,-0.00022803,0.00014568,-0.00001854,0.00058739,-0.
 00008422,0.00021518,0.00015816,0.00033843,0.00065314,0.00035241,-0.000
 36621,0.00122837,-0.00020477,-0.10766933,0.25441757,-0.00550088,0.0101
 9843,0.00235410,-0.00078668,0.00080256,0.00109633,0.00001013,0.0000177
 0,-0.00010783,-0.00025414,0.00115229,0.00113197,-0.00551039,0.01019424
 ,0.00232608,0.03238373,-0.06038543,-0.06796850,0.00001088,-0.00002393,
 -0.00003131,0.00030055,-0.00010250,-0.00005676,0.00102186,0.00202254,-
 0.00008751,-0.00013341,-0.00064574,0.00027797,-0.00004503,-0.00034993,
 -0.00006144,0.00013243,-0.00016384,0.00014894,0.00060767,-0.00023529,0
 .00025863,-0.00234576,0.00035126,-0.00008758,-0.03419623,0.06370051,0.
 06802435,-0.00065711,0.00202721,0.01789806,-0.00183224,-0.00346914,0.0
 0033816,-0.00034444,-0.00028480,0.00019278,-0.00664336,0.00010595,-0.0
 0080928,0.00167852,-0.00125403,-0.03248885,-0.04647351,0.00079763,0.00
 618039,0.00017219,0.00008983,0.00003690,0.00006504,-0.00006224,-0.0004
 9005,0.00055887,0.00013694,-0.00062665,0.00017973,0.00066893,0.0000079
 3,0.00004884,-0.00017796,0.00012334,-0.00005599,0.00010974,-0.00198096
 ,0.00105132,-0.00039576,0.00053819,0.00112276,0.00037298,0.00049032,-0
 .00072493,-0.00017146,0.01408644,0.05152316,0.00008796,0.00089466,0.02
 755484,-0.00298615,-0.00424281,-0.00008711,-0.00022436,-0.00002942,-0.
 00033824,-0.00047508,0.00049199,-0.00017812,0.00064861,-0.00115792,0.0
 0021003,0.00081539,-0.04741766,-0.01156776,0.00008254,0.00002919,0.000
 00835,-0.00019319,0.00025426,0.00019450,0.00074283,0.00073827,-0.00015
 107,0.00020038,0.00089141,-0.00064841,-0.00002174,0.00021548,0.0005044
 0,-0.00009200,0.00040947,-0.00015554,0.00007847,-0.00002163,-0.0003460
 8,-0.00022866,0.00021261,0.00044420,-0.00017960,-0.00048804,-0.0262785
 5,0.00179504,0.04918859,-0.00013715,-0.00130509,-0.00927219,0.00146697
 ,0.00235523,0.00127154,0.00019144,-0.00035655,0.00058985,-0.00305632,0
 .00009930,0.00089488,0.00139273,-0.00059146,-0.00912891,0.00510629,-0.
 00982446,-0.31653596,0.00002966,-0.00003070,-0.00004234,-0.00004785,-0
 .00004228,0.00026629,-0.00019524,0.00030968,0.00039942,0.00038699,0.00
 003916,0.00033199,0.00008216,0.00002084,0.00027688,0.00008724,0.000141
 64,-0.00079787,-0.00025780,-0.00030389,0.00031050,-0.00013909,0.000333
 28,0.00041652,0.00007475,-0.00014149,-0.00715723,-0.00479967,0.0091788
 6,0.33902009,0.00121886,0.00034890,0.00172111,-0.01687890,0.02664606,0
 .00862262,-0.09743001,0.09889459,0.03159934,0.00774195,-0.01653623,-0.
 00476804,0.00046402,0.00015145,-0.00076027,-0.00011403,-0.00011206,-0.
 00011860,-0.00076269,-0.00011660,-0.00004726,-0.00559032,-0.00026623,-
 0.00265805,0.00033224,-0.00053651,-0.00086730,0.00021612,-0.00046884,0
 .00012811,-0.00118165,-0.00330409,0.00178056,0.00069919,0.00041153,-0.
 00057165,-0.00006552,0.00008617,-0.00022814,-0.00007917,0.00040568,0.0
 0003467,-0.00009135,-0.00012905,0.00010079,0.00008110,0.00005991,-0.00
 003881,0.10982885,-0.00040660,0.00012472,-0.00030702,0.00026435,-0.001
 32829,-0.00011847,0.09859889,-0.23071677,-0.05912128,0.01102378,-0.022
 48533,-0.00708433,0.00097083,0.00100979,-0.00144743,-0.00011632,-0.000
 00743,0.00023093,-0.00014268,-0.00037721,-0.00002966,-0.00014714,0.000
 84233,0.00026423,0.00012520,0.00002787,0.00062466,-0.00006525,0.000220
 17,0.00016449,-0.00306722,-0.00321930,0.00229156,-0.00023866,0.0007375
 4,-0.00024102,-0.00032997,0.00045496,-0.00005349,-0.00025371,0.0003783
 5,0.00108478,-0.00012747,0.00010090,-0.00019710,0.00006159,-0.00000129
 ,0.00008076,-0.10578586,0.25262786,-0.00029687,0.00123927,0.00110174,-
 0.00580099,0.00971995,0.00229417,0.03216156,-0.06017398,-0.06777226,-0
 .00531726,0.00995693,0.00226289,-0.00080920,0.00082500,0.00108861,-0.0
 0002384,0.00000506,-0.00010272,0.01402153,-0.02612140,-0.00727569,-0.0
 0225433,0.00036611,0.00001516,-0.00010532,-0.00034455,-0.00004865,0.00
 014966,-0.00015396,0.00012945,0.00100281,0.00210786,-0.00004014,-0.000
 13945,-0.00063679,0.00025888,0.00005813,-0.00019259,0.00015054,0.00030
 444,-0.00015908,-0.00001679,0.00011358,-0.00020258,-0.00002688,0.00001
 140,-0.00001708,-0.00003974,-0.03384945,0.06373729,0.06799439,-0.00117
 300,-0.00126244,0.00392775,-0.11239641,-0.05184288,0.02270886,-0.02281
 114,-0.02894294,0.01157598,-0.00521781,0.00115491,-0.00259718,-0.00015
 310,-0.00004531,-0.00047075,0.00014551,0.00043643,-0.00108448,0.001568
 10,0.00009832,0.00095327,0.00725175,0.01078453,-0.00524354,0.00000002,
 -0.00045999,-0.00029430,0.00077523,0.00086771,-0.00135371,0.00005519,-
 0.00027146,-0.00010415,-0.00082800,-0.00137266,0.00062502,0.00012436,0
 .00001485,0.00015604,0.00000987,0.00003457,0.00007515,0.00000153,-0.00
 029112,0.00008727,0.00043918,0.00006872,-0.00029801,0.00137077,-0.0008
 0387,0.00039686,0.56288218,-0.00074085,-0.00163718,0.00430764,-0.05458
 213,-0.16503148,0.03728145,-0.00429285,-0.00165843,-0.00087209,0.00092
 490,-0.00015472,0.00007296,-0.00011024,0.00019131,0.00007467,0.0002692
 6,-0.00015538,-0.00089254,0.00074181,0.00004387,0.00020048,-0.01579976
 ,-0.02183609,0.01079047,0.00049977,0.00108251,-0.00164067,0.00008451,0
 .00004376,-0.00076360,-0.00017093,0.00034416,0.00006910,0.00022760,0.0
 0043037,0.00010574,0.00006906,0.00001574,-0.00004695,0.00002242,-0.000
 03656,-0.00001521,-0.00012686,0.00034409,0.00013364,-0.00001469,0.0004
 3109,-0.00025141,0.00171004,0.00108301,0.00013239,-0.03351095,0.517198
 85,0.02003903,0.03058821,-0.01676322,0.02271008,0.03541213,-0.09465908
 ,-0.00454712,-0.00997835,0.00489909,-0.00318558,-0.00001733,-0.0012962
 9,-0.00047079,0.00003032,-0.00052192,-0.00049641,-0.00107354,-0.006658
 45,-0.00104310,-0.00089390,0.00061903,-0.00523085,-0.00734802,0.003146
 52,-0.00014058,0.00068399,0.00141128,0.00064287,0.00023558,0.00141141,
 0.00010804,0.00020631,-0.00000532,-0.00079452,-0.00061168,0.00056726,0
 .00015599,-0.00000997,0.00024662,0.00007519,-0.00002351,0.00006880,-0.
 00012512,0.00017738,0.00004818,0.00112071,0.00150079,-0.00070099,0.000
 24163,0.00017843,0.00003964,0.01849087,0.02289616,0.57733896,-0.001773
 20,-0.00282180,0.00026327,-0.00149212,0.00202135,0.01641294,0.00100274
 ,0.00063223,0.00124899,0.00007614,-0.00002187,-0.00023713,0.00024876,0
 .00020936,0.00008889,0.00044717,-0.00009091,0.00101354,-0.00025172,-0.
 00033643,-0.00052959,0.00044544,0.00026257,-0.00060318,0.00000614,-0.0
 0011321,-0.00034762,0.00029648,-0.00010769,0.00030010,0.00001375,0.000
 04646,0.00000360,0.00001506,0.00002396,-0.00002110,-0.00000507,-0.0000
 0463,-0.00007718,-0.00001081,0.00000357,-0.00000568,-0.00002340,-0.000
 06172,0.00001181,-0.00019198,-0.00024375,0.00011712,-0.00003187,0.0000
 7822,0.00001525,-0.04637088,0.00010206,0.00546644,0.04592476,-0.003089
 27,-0.00437147,0.00041743,0.00012884,0.00108326,0.02699278,0.00108060,
 0.00077102,0.00038119,0.00022112,-0.00008654,-0.00006357,0.00022750,0.
 00004565,0.00007224,-0.00009713,0.00057970,0.00168383,-0.00025887,0.00
 013611,-0.00055056,0.00080512,0.00073039,-0.00016379,-0.00028073,0.000
 25555,0.00021826,0.00001485,-0.00010486,-0.00027309,0.00000577,-0.0000
 4384,0.00001511,0.00003426,0.00003675,-0.00005988,-0.00005799,-0.00000
 039,-0.00006577,-0.00002970,0.00001191,-0.00000649,0.00008425,0.000029
 56,-0.00008102,-0.00031494,-0.00042972,0.00022111,-0.00002632,-0.00003
 312,-0.00017686,0.00022695,-0.04582509,-0.00530898,0.00217573,0.047833
 68,0.00162255,0.00299474,0.00073607,-0.00075726,-0.00135098,-0.0098338
 4,-0.00078305,-0.00074084,0.00053611,0.00009391,0.00012634,0.00032249,
 -0.00015509,-0.00003811,-0.00000007,-0.00038678,-0.00056844,-0.0006815
 0,0.00067919,0.00011424,0.00040703,-0.00009846,0.00037883,0.00040922,-
 0.00011122,-0.00006536,0.00029792,-0.00002884,-0.00014345,0.00025652,-
 0.00001831,0.00001263,-0.00002811,0.00005079,0.00002654,0.00001778,0.0
 0009475,0.00001635,0.00008361,0.00001048,-0.00001822,0.00002056,0.0000
 1198,0.00009691,0.00000779,0.00019681,0.00026157,-0.00012284,0.0000081
 0,0.00009638,-0.00006140,0.00638618,-0.00422771,-0.31996554,-0.0077265
 3,0.00248704,0.34315140,0.00043966,0.00091982,-0.00100378,-0.01403126,
 0.00198450,-0.00566977,-0.00023543,-0.00381450,0.00222495,-0.00074393,
 0.00049497,-0.00085348,0.00005545,0.00011167,-0.00023078,0.00033834,-0
 .00012526,0.00019679,0.00016957,0.00009440,-0.00007855,0.00065216,-0.0
 0025702,-0.00001694,-0.00006556,-0.00006122,-0.00000494,0.00026861,-0.
 00022853,0.00088288,-0.00000438,-0.00011271,0.00001949,-0.00023833,-0.
 00033230,0.00017869,0.00006584,-0.00001680,0.00012251,0.00001477,0.000
 01827,0.00002047,-0.00001752,0.00000518,-0.00003056,0.00000732,-0.0000
 1595,0.00004777,0.00041501,0.00001975,0.00004879,-0.28759415,0.0038076
 6,-0.08811307,0.00254506,0.00000853,0.00138353,0.30885618,0.00003948,0
 .00077061,-0.00114545,-0.02508562,0.00106545,-0.00996666,-0.00151273,-
 0.00437090,0.00272738,-0.00160353,0.00057895,-0.00052403,0.00001570,0.
 00004541,-0.00023817,0.00013993,-0.00008673,-0.00018253,0.00025997,-0.
 00010459,0.00008604,0.00044579,0.00072969,-0.00069030,0.00015511,-0.00
 003310,0.00008904,0.00041808,0.00013652,0.00044212,0.00010618,0.000029
 56,-0.00004891,-0.00032053,-0.00042978,0.00021292,0.00004009,-0.000000
 33,0.00007805,-0.00000478,0.00001193,0.00003002,-0.00001196,-0.0000438
 7,-0.00001084,0.00006823,0.00003676,-0.00001005,-0.00030569,0.00025556
 ,0.00018162,0.00485947,-0.04581890,0.00166399,-0.00078491,-0.00124372,
 -0.00031383,-0.00134266,0.04782862,0.00102882,-0.00031757,0.00109970,0
 .01151419,-0.00138288,0.00272244,0.00086489,0.00153804,-0.00080186,0.0
 0054784,0.00029215,0.00051001,0.00001328,-0.00018091,0.00019347,-0.000
 13444,-0.00002574,0.00006037,0.00025023,0.00015294,0.00038308,-0.00052
 224,-0.00038319,0.00020299,0.00000206,-0.00010809,-0.00002784,-0.00032
 608,0.00027144,-0.00011367,0.00001914,0.00002208,-0.00001115,0.0000989
 9,0.00013187,-0.00007641,-0.00004943,-0.00000167,0.00001264,0.00000433
 ,0.00000331,-0.00000503,-0.00000864,-0.00004786,0.00000323,-0.00002415
 ,-0.00003199,0.00002553,-0.00018744,0.00012889,-0.00011098,-0.08903380
 ,0.00138545,-0.07874783,-0.02935863,0.00082738,-0.00841443,0.09527655,
 -0.00286944,0.08022525,0.00042835,-0.00002311,-0.00082177,0.00691796,-
 0.01472404,-0.00544523,0.00185423,-0.00087140,-0.00041885,0.00000552,-
 0.00020531,0.00003215,0.00004178,0.00006184,0.00000609,0.00000601,-0.0
 0020490,-0.00015191,-0.00005986,0.00007351,-0.00007857,-0.00105995,-0.
 00298418,0.00114019,0.00006162,0.00038778,-0.00006274,-0.00005353,0.00
 013321,0.00010338,-0.00011791,0.00013484,0.00001465,-0.00000019,0.0000
 8306,-0.00000023,0.,0.00001022,-0.00002968,-0.00000462,0.00000395,0.00
 000908,-0.00006144,0.00003779,0.00004954,-0.00000448,0.00008064,-0.000
 01317,-0.00014262,0.00034213,0.00031270,-0.09807920,0.10089018,0.03509
 627,-0.00087044,-0.00085857,-0.00047273,-0.01089739,0.02442439,0.01002
 452,0.10203616,0.00074475,0.00088149,-0.00162610,0.01158557,-0.0232917
 1,-0.00789359,0.00178585,0.00088181,-0.00010134,-0.00025447,0.00030080
 ,0.00016508,0.00009015,-0.00004413,-0.00006146,-0.00024669,0.00030093,
 0.00017649,-0.00005591,-0.00000888,0.00006246,-0.00341470,-0.00329279,
 0.00233171,-0.00032444,0.00030639,0.00108280,-0.00007867,-0.00000879,0
 .00002921,0.00012409,0.00030306,-0.00004613,-0.00010466,-0.00000526,0.
 00005463,-0.00000671,0.00000343,0.00000456,-0.00005512,0.00001918,0.00
 003761,0.00008811,0.00030292,-0.00009901,-0.00008905,-0.00000529,0.000
 07753,-0.00112684,0.00030571,-0.00009262,0.10025715,-0.23905493,-0.068
 30801,-0.00096857,0.00062517,0.00085535,-0.00115779,0.00064286,0.00059
 579,-0.10679204,0.26083802,-0.00097803,0.00092727,0.00136850,-0.005458
 05,0.01005592,0.00264491,-0.00026410,-0.00031733,-0.00005736,-0.000152
 11,0.00013944,-0.00004115,0.00000608,-0.00004213,0.00004663,0.00003239
 ,0.00013998,-0.00004165,0.00010098,-0.00011431,-0.00004379,0.00114025,
 0.00203781,-0.00016997,0.00039294,-0.00021554,-0.00004508,-0.00007594,
 -0.00002678,-0.00005010,0.00002743,0.00001208,-0.00003624,-0.00001139,
 -0.00005410,-0.00000969,-0.00002967,-0.00000699,-0.00002325,0.00000910
 ,-0.00000270,0.00000247,0.00003675,-0.00013020,-0.00009254,-0.00000182
 ,-0.00005759,-0.00000541,-0.00014193,-0.00028260,0.00015978,0.03509667
 ,-0.06873997,-0.07047815,0.01396468,-0.02656637,-0.00713878,-0.0044005
 5,0.01048905,0.00287049,-0.03929370,0.07275505,0.07114040\\0.00006173,
 -0.00000483,0.00004939,-0.00002755,-0.00015865,0.00001982,-0.00002486,
 0.00000291,-0.00007113,-0.00006389,0.00010641,0.00000515,0.00002948,-0
 .00006803,-0.00001899,-0.00003102,0.00011361,0.00006303,-0.00001284,0.
 00000223,0.00001290,0.00004406,-0.00001377,-0.00003052,-0.00003242,0.0
 0001446,0.00000156,-0.00001783,0.00000613,0.00000792,0.00002455,-0.000
 03158,-0.00000840,0.00001701,-0.00003031,0.00001382,0.00000516,0.00001
 581,-0.00000502,-0.00000998,0.00003817,0.00000682,0.00001702,-0.000033
 21,-0.00002258,-0.00000558,-0.00003391,-0.00002199,-0.00001320,0.00001
 289,0.00002710,0.00018932,0.00033870,-0.00013048,-0.00003334,-0.000072
 92,0.00010023,-0.00010543,-0.00007280,-0.00000580,-0.00001040,-0.00013
 131,0.00000719\\\@
 The archive entry for this job was punched.


 ... THE UNIVERSE IS NOT ONLY QUEERER THAN WE SUPPOSE,
 BUT QUEERER THAN WE CAN SUPPOSE ... 

                                   -- J. B. S. HALDANE
 Job cpu time:       0 days  0 hours 27 minutes 52.9 seconds.
 Elapsed time:       0 days  0 hours  1 minutes 46.1 seconds.
 File lengths (MBytes):  RWF=     66 Int=      0 D2E=      0 Chk=      5 Scr=      1
 Normal termination of Gaussian 16 at Mon Dec 27 13:06:58 2021.
