 Entering Gaussian System, Link 0=/software/g16/g16
 Input=E-isomer.com
 Output=E-isomer.log
 Initial command:
 /software/g16/l1.exe "/scratch/Gau-1344457.inp" -scrdir="/scratch/"
 Default CPUs for threads: 0-15
 Default is to use a total of  16 processors:
                               16 via shared-memory
                                1 via Linda
 Entering Link 1 = /software/g16/l1.exe PID=   1344458.
  
 Copyright (c) 1988-2019, Gaussian, Inc.  All Rights Reserved.
  
 This is part of the Gaussian(R) 16 program.  It is based on
 the Gaussian(R) 09 system (copyright 2009, Gaussian, Inc.),
 the Gaussian(R) 03 system (copyright 2003, Gaussian, Inc.),
 the Gaussian(R) 98 system (copyright 1998, Gaussian, Inc.),
 the Gaussian(R) 94 system (copyright 1995, Gaussian, Inc.),
 the Gaussian 92(TM) system (copyright 1992, Gaussian, Inc.),
 the Gaussian 90(TM) system (copyright 1990, Gaussian, Inc.),
 the Gaussian 88(TM) system (copyright 1988, Gaussian, Inc.),
 the Gaussian 86(TM) system (copyright 1986, Carnegie Mellon
 University), and the Gaussian 82(TM) system (copyright 1983,
 Carnegie Mellon University). Gaussian is a federally registered
 trademark of Gaussian, Inc.
  
 This software contains proprietary and confidential information,
 including trade secrets, belonging to Gaussian, Inc.
  
 This software is provided under written license and may be
 used, copied, transmitted, or stored only in accord with that
 written license.
  
 The following legend is applicable only to US Government
 contracts under FAR:
  
                    RESTRICTED RIGHTS LEGEND
  
 Use, reproduction and disclosure by the US Government is
 subject to restrictions as set forth in subparagraphs (a)
 and (c) of the Commercial Computer Software - Restricted
 Rights clause in FAR 52.227-19.
  
 Gaussian, Inc.
 340 Quinnipiac St., Bldg. 40, Wallingford CT 06492
  
  
 ---------------------------------------------------------------
 Warning -- This program may not be used in any manner that
 competes with the business of Gaussian, Inc. or will provide
 assistance to any competitor of Gaussian, Inc.  The licensee
 of this program is prohibited from giving any competitor of
 Gaussian, Inc. access to this program.  By using this program,
 the user acknowledges that Gaussian, Inc. is engaged in the
 business of creating and licensing software in the field of
 computational chemistry and represents and warrants to the
 licensee that it is not a competitor of Gaussian, Inc. and that
 it will not use this program in any manner prohibited above.
 ---------------------------------------------------------------
  

 Cite this work as:
 Gaussian 16, Revision C.01,
 M. J. Frisch, G. W. Trucks, H. B. Schlegel, G. E. Scuseria, 
 M. A. Robb, J. R. Cheeseman, G. Scalmani, V. Barone, 
 G. A. Petersson, H. Nakatsuji, X. Li, M. Caricato, A. V. Marenich, 
 J. Bloino, B. G. Janesko, R. Gomperts, B. Mennucci, H. P. Hratchian, 
 J. V. Ortiz, A. F. Izmaylov, J. L. Sonnenberg, D. Williams-Young, 
 F. Ding, F. Lipparini, F. Egidi, J. Goings, B. Peng, A. Petrone, 
 T. Henderson, D. Ranasinghe, V. G. Zakrzewski, J. Gao, N. Rega, 
 G. Zheng, W. Liang, M. Hada, M. Ehara, K. Toyota, R. Fukuda, 
 J. Hasegawa, M. Ishida, T. Nakajima, Y. Honda, O. Kitao, H. Nakai, 
 T. Vreven, K. Throssell, J. A. Montgomery, Jr., J. E. Peralta, 
 F. Ogliaro, M. J. Bearpark, J. J. Heyd, E. N. Brothers, K. N. Kudin, 
 V. N. Staroverov, T. A. Keith, R. Kobayashi, J. Normand, 
 K. Raghavachari, A. P. Rendell, J. C. Burant, S. S. Iyengar, 
 J. Tomasi, M. Cossi, J. M. Millam, M. Klene, C. Adamo, R. Cammi, 
 J. W. Ochterski, R. L. Martin, K. Morokuma, O. Farkas, 
 J. B. Foresman, and D. J. Fox, Gaussian, Inc., Wallingford CT, 2019.
 
 ******************************************
 Gaussian 16:  ES64L-G16RevC.01  3-Jul-2019
                31-Dec-2021 
 ******************************************
 SetSPE:  set environment variable "MP_BIND" = "yes"
 SetSPE:  set environment variable "MP_BLIST" = "0,1,2,3,4,5,6,7,8,9,10,11,12,13,14,15"
 ----------------------------------------------------------
 #N M062X/def2svp OPT FREQ=NoRaman Integral(Grid=UltraFine)
 ----------------------------------------------------------
 1/18=20,19=15,26=4,38=1/1,3;
 2/9=110,12=2,17=6,18=5,40=1/2;
 3/5=43,7=101,11=2,25=1,30=1,71=1,74=-55,75=-5/1,2,3;
 4//1;
 5/5=2,38=5/2;
 6/7=2,8=2,9=2,10=2,28=1/1;
 7//1,2,3,16;
 1/18=20,19=15,26=4/3(2);
 2/9=110/2;
 99//99;
 2/9=110/2;
 3/5=43,7=101,11=2,25=1,30=1,71=1,74=-55,75=-5/1,2,3;
 4/5=5,16=3,69=1/1;
 5/5=2,38=5/2;
 7//1,2,3,16;
 1/18=20,19=15,26=4/3(-5);
 2/9=110/2;
 6/7=2,8=2,9=2,10=2,19=2,28=1/1;
 99/9=1/99;
 -----------------------
 E-isomer - all: def2svp
 -----------------------
 Symbolic Z-matrix:
 Charge =  0 Multiplicity = 1
 C
 C                    1    B1
 C                    2    B2       1    A1
 C                    3    B3       2    A2       1    D1       0
 C                    4    B4       3    A3       2    D2       0
 C                    1    B5       2    A4       3    D3       0
 H                    1    B6       2    A5       3    D4       0
 H                    3    B7       2    A6       1    D5       0
 H                    4    B8       3    A7       2    D6       0
 H                    6    B9       1    A8       2    D7       0
 N                    2    B10      1    A9       6    D8       0
 O                    11   B11      2    A10      1    D9       0
 O                    11   B12      2    A11      1    D10      0
 C                    5    B13      4    A12      3    D11      0
 C                    14   B14      5    A13      4    D12      0
 C                    15   B15      14   A14      5    D13      0
 H                    16   B16      15   A15      14   D14      0
 H                    16   B17      15   A16      14   D15      0
 H                    16   B18      15   A17      14   D16      0
 C                    14   B19      5    A18      4    D17      0
 H                    20   B20      14   A19      5    D18      0
 H                    20   B21      14   A20      5    D19      0
 H                    20   B22      14   A21      5    D20      0
 S                    15   B23      14   A22      5    D21      0
 O                    24   B24      15   A23      14   D22      0
 O                    24   B25      15   A24      14   D23      0
 C                    24   B26      15   A25      14   D24      0
 F                    27   B27      24   A26      15   D25      0
 F                    27   B28      24   A27      15   D26      0
 F                    27   B29      24   A28      15   D27      0
 O                    24   B30      15   A29      14   D28      0
       Variables:
  B1                    1.4014                   
  B2                    1.4014                   
  B3                    1.4014                   
  B4                    1.4014                   
  B5                    1.4014                   
  B6                    1.07                     
  B7                    1.07                     
  B8                    1.07                     
  B9                    1.07                     
  B10                   1.47                     
  B11                   1.1968                   
  B12                   1.1968                   
  B13                   1.54                     
  B14                   1.3552                   
  B15                   1.54                     
  B16                   1.07                     
  B17                   1.07                     
  B18                   1.07                     
  B19                   1.54                     
  B20                   1.07                     
  B21                   1.07                     
  B22                   1.07                     
  B23                   2.53493                  
  B24                   1.4696                   
  B25                   1.4696                   
  B26                   1.78                     
  B27                   1.35                     
  B28                   1.35                     
  B29                   1.35                     
  B30                   1.67                     
  A1                  120.                       
  A2                  120.                       
  A3                  120.                       
  A4                  120.                       
  A5                  120.                       
  A6                  120.                       
  A7                  120.                       
  A8                  120.                       
  A9                  120.                       
  A10                 120.                       
  A11                 120.                       
  A12                 120.                       
  A13                 120.                       
  A14                 120.                       
  A15                 109.47122                  
  A16                 109.47122                  
  A17                 109.47122                  
  A18                 120.                       
  A19                 109.47122                  
  A20                 109.47122                  
  A21                 109.47122                  
  A22                 113.07018                  
  A23                 141.60215                  
  A24                  91.8085                   
  A25                  91.8085                   
  A26                 109.47122                  
  A27                 109.47122                  
  A28                 109.47122                  
  A29                  32.13093                  
  D1                    0.                       
  D2                    0.                       
  D3                    0.                       
  D4                 -180.                       
  D5                 -180.                       
  D6                  180.                       
  D7                  180.                       
  D8                  180.                       
  D9                    0.                       
  D10                 180.                       
  D11                -180.                       
  D12                -180.                       
  D13                   0.                       
  D14                 -30.                       
  D15                  90.                       
  D16                -150.                       
  D17                   0.                       
  D18                 -30.                       
  D19                  90.                       
  D20                -150.                       
  D21                 137.53727                  
  D22                 109.72798                  
  D23                 -15.49601                  
  D24                -125.04803                  
  D25                 -87.44069                  
  D26                 152.55931                  
  D27                  32.55931                  
  D28                 109.72798                  
 
     9 tetrahedral angles replaced.

 GradGradGradGradGradGradGradGradGradGradGradGradGradGradGradGradGradGrad
 Berny optimization.
 Initialization pass.
                           ----------------------------
                           !    Initial Parameters    !
                           ! (Angstroms and Degrees)  !
 --------------------------                            --------------------------
 ! Name  Definition              Value          Derivative Info.                !
 --------------------------------------------------------------------------------
 ! R1    R(1,2)                  1.4014         estimate D2E/DX2                !
 ! R2    R(1,6)                  1.4014         estimate D2E/DX2                !
 ! R3    R(1,7)                  1.07           estimate D2E/DX2                !
 ! R4    R(2,3)                  1.4014         estimate D2E/DX2                !
 ! R5    R(2,11)                 1.47           estimate D2E/DX2                !
 ! R6    R(3,4)                  1.4014         estimate D2E/DX2                !
 ! R7    R(3,8)                  1.07           estimate D2E/DX2                !
 ! R8    R(4,5)                  1.4014         estimate D2E/DX2                !
 ! R9    R(4,9)                  1.07           estimate D2E/DX2                !
 ! R10   R(5,6)                  1.4014         estimate D2E/DX2                !
 ! R11   R(5,14)                 1.54           estimate D2E/DX2                !
 ! R12   R(6,10)                 1.07           estimate D2E/DX2                !
 ! R13   R(11,12)                1.1968         estimate D2E/DX2                !
 ! R14   R(11,13)                1.1968         estimate D2E/DX2                !
 ! R15   R(14,15)                1.3552         estimate D2E/DX2                !
 ! R16   R(14,20)                1.54           estimate D2E/DX2                !
 ! R17   R(15,16)                1.54           estimate D2E/DX2                !
 ! R18   R(15,31)                1.43           estimate D2E/DX2                !
 ! R19   R(16,17)                1.07           estimate D2E/DX2                !
 ! R20   R(16,18)                1.07           estimate D2E/DX2                !
 ! R21   R(16,19)                1.07           estimate D2E/DX2                !
 ! R22   R(20,21)                1.07           estimate D2E/DX2                !
 ! R23   R(20,22)                1.07           estimate D2E/DX2                !
 ! R24   R(20,23)                1.07           estimate D2E/DX2                !
 ! R25   R(24,25)                1.4696         estimate D2E/DX2                !
 ! R26   R(24,26)                1.4696         estimate D2E/DX2                !
 ! R27   R(24,27)                1.78           estimate D2E/DX2                !
 ! R28   R(24,31)                1.67           estimate D2E/DX2                !
 ! R29   R(27,28)                1.35           estimate D2E/DX2                !
 ! R30   R(27,29)                1.35           estimate D2E/DX2                !
 ! R31   R(27,30)                1.35           estimate D2E/DX2                !
 ! A1    A(2,1,6)              120.0            estimate D2E/DX2                !
 ! A2    A(2,1,7)              120.0            estimate D2E/DX2                !
 ! A3    A(6,1,7)              120.0            estimate D2E/DX2                !
 ! A4    A(1,2,3)              120.0            estimate D2E/DX2                !
 ! A5    A(1,2,11)             120.0            estimate D2E/DX2                !
 ! A6    A(3,2,11)             120.0            estimate D2E/DX2                !
 ! A7    A(2,3,4)              120.0            estimate D2E/DX2                !
 ! A8    A(2,3,8)              120.0            estimate D2E/DX2                !
 ! A9    A(4,3,8)              120.0            estimate D2E/DX2                !
 ! A10   A(3,4,5)              120.0            estimate D2E/DX2                !
 ! A11   A(3,4,9)              120.0            estimate D2E/DX2                !
 ! A12   A(5,4,9)              120.0            estimate D2E/DX2                !
 ! A13   A(4,5,6)              120.0            estimate D2E/DX2                !
 ! A14   A(4,5,14)             120.0            estimate D2E/DX2                !
 ! A15   A(6,5,14)             120.0            estimate D2E/DX2                !
 ! A16   A(1,6,5)              120.0            estimate D2E/DX2                !
 ! A17   A(1,6,10)             120.0            estimate D2E/DX2                !
 ! A18   A(5,6,10)             120.0            estimate D2E/DX2                !
 ! A19   A(2,11,12)            120.0            estimate D2E/DX2                !
 ! A20   A(2,11,13)            120.0            estimate D2E/DX2                !
 ! A21   A(12,11,13)           120.0            estimate D2E/DX2                !
 ! A22   A(5,14,15)            120.0            estimate D2E/DX2                !
 ! A23   A(5,14,20)            120.0            estimate D2E/DX2                !
 ! A24   A(15,14,20)           120.0            estimate D2E/DX2                !
 ! A25   A(14,15,16)           120.0            estimate D2E/DX2                !
 ! A26   A(14,15,31)           120.0            estimate D2E/DX2                !
 ! A27   A(16,15,31)           120.0            estimate D2E/DX2                !
 ! A28   A(15,16,17)           109.4712         estimate D2E/DX2                !
 ! A29   A(15,16,18)           109.4712         estimate D2E/DX2                !
 ! A30   A(15,16,19)           109.4712         estimate D2E/DX2                !
 ! A31   A(17,16,18)           109.4712         estimate D2E/DX2                !
 ! A32   A(17,16,19)           109.4712         estimate D2E/DX2                !
 ! A33   A(18,16,19)           109.4712         estimate D2E/DX2                !
 ! A34   A(14,20,21)           109.4712         estimate D2E/DX2                !
 ! A35   A(14,20,22)           109.4712         estimate D2E/DX2                !
 ! A36   A(14,20,23)           109.4712         estimate D2E/DX2                !
 ! A37   A(21,20,22)           109.4712         estimate D2E/DX2                !
 ! A38   A(21,20,23)           109.4712         estimate D2E/DX2                !
 ! A39   A(22,20,23)           109.4712         estimate D2E/DX2                !
 ! A40   A(25,24,26)           109.4712         estimate D2E/DX2                !
 ! A41   A(25,24,27)           109.4712         estimate D2E/DX2                !
 ! A42   A(25,24,31)           109.4712         estimate D2E/DX2                !
 ! A43   A(26,24,27)           109.4712         estimate D2E/DX2                !
 ! A44   A(26,24,31)           109.4712         estimate D2E/DX2                !
 ! A45   A(27,24,31)           109.4712         estimate D2E/DX2                !
 ! A46   A(24,27,28)           109.4712         estimate D2E/DX2                !
 ! A47   A(24,27,29)           109.4712         estimate D2E/DX2                !
 ! A48   A(24,27,30)           109.4712         estimate D2E/DX2                !
 ! A49   A(28,27,29)           109.4712         estimate D2E/DX2                !
 ! A50   A(28,27,30)           109.4712         estimate D2E/DX2                !
 ! A51   A(29,27,30)           109.4712         estimate D2E/DX2                !
 ! A52   A(15,31,24)           109.4712         estimate D2E/DX2                !
 ! D1    D(6,1,2,3)              0.0            estimate D2E/DX2                !
 ! D2    D(6,1,2,11)           180.0            estimate D2E/DX2                !
 ! D3    D(7,1,2,3)            180.0            estimate D2E/DX2                !
 ! D4    D(7,1,2,11)             0.0            estimate D2E/DX2                !
 ! D5    D(2,1,6,5)              0.0            estimate D2E/DX2                !
 ! D6    D(2,1,6,10)           180.0            estimate D2E/DX2                !
 ! D7    D(7,1,6,5)            180.0            estimate D2E/DX2                !
 ! D8    D(7,1,6,10)             0.0            estimate D2E/DX2                !
 ! D9    D(1,2,3,4)              0.0            estimate D2E/DX2                !
 ! D10   D(1,2,3,8)            180.0            estimate D2E/DX2                !
 ! D11   D(11,2,3,4)           180.0            estimate D2E/DX2                !
 ! D12   D(11,2,3,8)             0.0            estimate D2E/DX2                !
 ! D13   D(1,2,11,12)            0.0            estimate D2E/DX2                !
 ! D14   D(1,2,11,13)          180.0            estimate D2E/DX2                !
 ! D15   D(3,2,11,12)          180.0            estimate D2E/DX2                !
 ! D16   D(3,2,11,13)            0.0            estimate D2E/DX2                !
 ! D17   D(2,3,4,5)              0.0            estimate D2E/DX2                !
 ! D18   D(2,3,4,9)            180.0            estimate D2E/DX2                !
 ! D19   D(8,3,4,5)            180.0            estimate D2E/DX2                !
 ! D20   D(8,3,4,9)              0.0            estimate D2E/DX2                !
 ! D21   D(3,4,5,6)              0.0            estimate D2E/DX2                !
 ! D22   D(3,4,5,14)           180.0            estimate D2E/DX2                !
 ! D23   D(9,4,5,6)            180.0            estimate D2E/DX2                !
 ! D24   D(9,4,5,14)             0.0            estimate D2E/DX2                !
 ! D25   D(4,5,6,1)              0.0            estimate D2E/DX2                !
 ! D26   D(4,5,6,10)           180.0            estimate D2E/DX2                !
 ! D27   D(14,5,6,1)           180.0            estimate D2E/DX2                !
 ! D28   D(14,5,6,10)            0.0            estimate D2E/DX2                !
 ! D29   D(4,5,14,15)          180.0            estimate D2E/DX2                !
 ! D30   D(4,5,14,20)            0.0            estimate D2E/DX2                !
 ! D31   D(6,5,14,15)            0.0            estimate D2E/DX2                !
 ! D32   D(6,5,14,20)          180.0            estimate D2E/DX2                !
 ! D33   D(5,14,15,16)           0.0            estimate D2E/DX2                !
 ! D34   D(5,14,15,31)         180.0            estimate D2E/DX2                !
 ! D35   D(20,14,15,16)        180.0            estimate D2E/DX2                !
 ! D36   D(20,14,15,31)          0.0            estimate D2E/DX2                !
 ! D37   D(5,14,20,21)         -30.0            estimate D2E/DX2                !
 ! D38   D(5,14,20,22)          90.0            estimate D2E/DX2                !
 ! D39   D(5,14,20,23)        -150.0            estimate D2E/DX2                !
 ! D40   D(15,14,20,21)        150.0            estimate D2E/DX2                !
 ! D41   D(15,14,20,22)        -90.0            estimate D2E/DX2                !
 ! D42   D(15,14,20,23)         30.0            estimate D2E/DX2                !
 ! D43   D(14,15,16,17)        -30.0            estimate D2E/DX2                !
 ! D44   D(14,15,16,18)         90.0            estimate D2E/DX2                !
 ! D45   D(14,15,16,19)       -150.0            estimate D2E/DX2                !
 ! D46   D(31,15,16,17)        150.0            estimate D2E/DX2                !
 ! D47   D(31,15,16,18)        -90.0            estimate D2E/DX2                !
 ! D48   D(31,15,16,19)         30.0            estimate D2E/DX2                !
 ! D49   D(14,15,31,24)        -90.0            estimate D2E/DX2                !
 ! D50   D(16,15,31,24)         90.0            estimate D2E/DX2                !
 ! D51   D(25,24,27,28)         60.0            estimate D2E/DX2                !
 ! D52   D(25,24,27,29)        -60.0            estimate D2E/DX2                !
 ! D53   D(25,24,27,30)        180.0            estimate D2E/DX2                !
 ! D54   D(26,24,27,28)        180.0            estimate D2E/DX2                !
 ! D55   D(26,24,27,29)         60.0            estimate D2E/DX2                !
 ! D56   D(26,24,27,30)        -60.0            estimate D2E/DX2                !
 ! D57   D(31,24,27,28)        -60.0            estimate D2E/DX2                !
 ! D58   D(31,24,27,29)       -180.0            estimate D2E/DX2                !
 ! D59   D(31,24,27,30)         60.0            estimate D2E/DX2                !
 ! D60   D(25,24,31,15)        180.0            estimate D2E/DX2                !
 ! D61   D(26,24,31,15)         60.0            estimate D2E/DX2                !
 ! D62   D(27,24,31,15)        -60.0            estimate D2E/DX2                !
 --------------------------------------------------------------------------------
 Trust Radius=3.00D-01 FncErr=1.00D-07 GrdErr=1.00D-06 EigMax=2.50D+02 EigMin=1.00D-04
 Number of steps in this run=    155 maximum allowed number of steps=    186.
 GradGradGradGradGradGradGradGradGradGradGradGradGradGradGradGradGradGrad

                          Input orientation:                          
 ---------------------------------------------------------------------
 Center     Atomic      Atomic             Coordinates (Angstroms)
 Number     Number       Type             X           Y           Z
 ---------------------------------------------------------------------
      1          6           0        0.000000    0.000000    0.000000
      2          6           0        0.000000    0.000000    1.401400
      3          6           0        1.213648    0.000000    2.102100
      4          6           0        2.427296    0.000000    1.401400
      5          6           0        2.427296    0.000000    0.000000
      6          6           0        1.213648    0.000000   -0.700700
      7          1           0       -0.926647    0.000000   -0.535000
      8          1           0        1.213648    0.000000    3.172100
      9          1           0        3.353943    0.000000    1.936400
     10          1           0        1.213648    0.000000   -1.770700
     11          7           0       -1.273057    0.000000    2.136400
     12          8           0       -2.309517    0.000000    1.538000
     13          8           0       -1.273057    0.000000    3.333200
     14          6           0        3.760975    0.000000   -0.770000
     15          6           0        3.760975    0.000000   -2.125200
     16          6           0        2.427296    0.000000   -2.895200
     17          1           0        1.681588   -0.504403   -2.316929
     18          1           0        2.118414    1.008806   -3.073533
     19          1           0        2.555239   -0.504403   -3.830138
     20          6           0        5.094654    0.000000    0.000000
     21          1           0        4.966711    0.504403    0.934938
     22          1           0        5.403537   -1.008806    0.178333
     23          1           0        5.840362    0.504403   -0.578271
     24         16           0        5.481478    1.574492   -3.118533
     25          8           0        6.754189    1.574493   -3.853333
     26          8           0        5.657202    2.267269   -1.834436
     27          6           0        4.240953    2.413592   -4.080517
     28          9           0        4.079530    1.777195   -5.260111
     29          9           0        4.630664    3.686384   -4.305517
     30          9           0        3.071819    2.413591   -3.405517
     31          8           0        4.999391    0.000001   -2.840200
 ---------------------------------------------------------------------
                    Distance matrix (angstroms):
                    1          2          3          4          5
     1  C    0.000000
     2  C    1.401400   0.000000
     3  C    2.427296   1.401400   0.000000
     4  C    2.802800   2.427296   1.401400   0.000000
     5  C    2.427296   2.802800   2.427296   1.401400   0.000000
     6  C    1.401400   2.427296   2.802800   2.427296   1.401400
     7  H    1.070000   2.146700   3.396345   3.872800   3.396345
     8  H    3.396345   2.146700   1.070000   2.146700   3.396345
     9  H    3.872800   3.396345   2.146700   1.070000   2.146700
    10  H    2.146700   3.396345   3.872800   3.396345   2.146700
    11  N    2.486942   1.470000   2.486942   3.772644   4.272800
    12  O    2.774763   2.313553   3.568038   4.738782   4.980245
    13  O    3.568038   2.313553   2.774763   4.174262   4.980245
    14  C    3.838989   4.342800   3.838989   2.548270   1.540000
    15  C    4.319885   5.155758   4.935478   3.770359   2.509019
    16  C    3.778088   4.934829   5.142562   4.296600   2.895200
    17  H    2.906944   4.111950   4.472271   3.825764   2.485692
    18  H    3.866778   5.052761   5.350091   4.597622   3.249570
    19  H    4.631806   5.844027   6.102928   5.257355   3.865326
    20  C    5.094654   5.283883   4.413732   3.013092   2.667358
    21  H    5.079050   5.014003   3.962597   2.630711   2.752664
    22  H    5.499791   5.631322   4.719506   3.372179   3.147618
    23  H    5.890556   6.187354   5.370782   3.977756   3.498263
    24  S    6.500067   7.277048   6.924479   5.677750   4.640291
    25  O    7.933869   8.701168   8.285156   6.986648   6.004099
    26  O    6.364715   6.900368   6.354683   5.103277   4.351776
    27  C    6.360953   7.339109   7.294844   6.258290   5.075962
    28  F    6.889830   8.011037   8.097768   7.089713   5.792846
    29  F    7.319149   8.222005   8.143892   7.142349   6.081261
    30  F    5.182570   6.194186   6.293811   5.417313   4.223550
    31  O    5.749839   6.556301   6.225607   4.960529   3.831763
                    6          7          8          9         10
     6  C    0.000000
     7  H    2.146700   0.000000
     8  H    3.872800   4.280590   0.000000
     9  H    3.396345   4.942800   2.471400   0.000000
    10  H    1.070000   2.471400   4.942800   4.280590   0.000000
    11  N    3.772644   2.693767   2.693767   4.631321   4.631321
    12  O    4.174262   2.491918   3.883680   5.677455   4.833237
    13  O    4.738782   3.883680   2.491918   4.833237   5.677455
    14  C    2.548270   4.693509   4.693509   2.736837   2.736837
    15  C    2.918574   4.950004   5.877947   4.081944   2.571876
    16  C    2.507742   4.101156   6.187493   4.919658   1.654522
    17  H    1.756584   3.198841   5.531982   4.598043   0.878497
    18  H    2.732513   4.090750   6.390949   5.257723   1.879804
    19  H    3.442044   4.820362   7.147421   5.843398   2.509098
    20  C    3.943753   6.045022   5.012427   2.603790   4.265863
    21  H    4.124950   6.094818   4.398272   1.964273   4.654071
    22  H    4.398358   6.449633   5.247427   2.882589   4.729861
    23  H    4.655738   6.785920   5.977139   3.572152   4.804456
    24  S    5.151632   7.086447   7.763083   5.705943   4.744476
    25  O    6.566256   8.513848   9.084786   6.896500   6.124866
    26  O    5.115763   7.083510   7.067608   4.966358   4.988962
    27  C    5.139374   6.715669   8.221341   6.543355   4.508354
    28  F    5.670973   7.109635   9.081513   7.448132   4.852596
    29  F    6.185477   7.660935   9.010004   7.360772   5.629451
    30  F    4.073604   5.482063   7.248673   5.868653   3.456999
    31  O    4.348484   6.358607   7.104900   5.052070   3.933915
                   11         12         13         14         15
    11  N    0.000000
    12  O    1.196800   0.000000
    13  O    1.196800   2.072918   0.000000
    14  C    5.812800   6.494439   6.494439   0.000000
    15  C    6.595659   7.090127   7.425336   1.355200   0.000000
    16  C    6.245768   6.487731   7.244693   2.509019   1.540000
    17  H    5.368099   5.571698   6.395960   2.640315   2.148263
    18  H    6.297870   6.472287   7.318879   3.003658   2.148263
    19  H    7.107028   7.262036   8.137793   3.327561   2.148263
    20  C    6.716543   7.562221   7.187348   1.540000   2.509019
    21  H    6.374374   7.318579   6.703789   2.148263   3.327561
    22  H    7.030549   7.896681   7.453038   2.148263   3.003658
    23  H    7.630505   8.435256   8.133558   2.148263   2.640315
    24  S    8.701557   9.212053   9.472467   3.309798   2.534929
    25  O   10.138669  10.662845  10.888616   4.576604   3.798000
    26  O    8.302803   8.943290   8.937195   3.141529   2.969971
    27  C    8.653311   8.961128   9.549499   4.124964   3.143098
    28  F    9.301451   9.496981  10.278794   4.839524   3.617674
    29  F    9.483757   9.792968  10.334087   5.181280   4.370305
    30  F    7.444207   7.695619   8.373391   3.639547   2.817724
    31  O    8.006882   8.519904   8.800823   2.412344   1.430000
                   16         17         18         19         20
    16  C    0.000000
    17  H    1.070000   0.000000
    18  H    1.070000   1.747303   0.000000
    19  H    1.070000   1.747303   1.747303   0.000000
    20  C    3.936621   4.155912   4.395714   4.623095   0.000000
    21  H    4.623095   4.731211   4.943183   5.434963   1.070000
    22  H    4.395714   4.509286   5.043553   4.943183   1.070000
    23  H    4.155912   4.619094   4.509286   4.731211   1.070000
    24  S    3.443389   4.404945   3.410605   3.659379   3.514813
    25  O    4.703089   5.693297   4.734818   4.685459   4.481212
    26  O    4.086321   4.870366   3.955011   4.613801   2.970206
    27  C    3.243417   4.263248   2.737264   3.379203   4.817141
    28  F    3.388378   4.429236   3.036037   3.094184   5.644260
    29  F    4.520315   5.496747   3.872804   4.700645   5.687019
    30  F    2.549755   3.410638   1.729918   2.993634   4.638408
    31  O    2.572683   3.396477   3.061399   2.684824   2.841797
                   21         22         23         24         25
    21  H    0.000000
    22  H    1.747303   0.000000
    23  H    1.747303   1.747303   0.000000
    24  S    4.223826   4.189133   2.779716   0.000000
    25  O    5.221849   4.975141   3.564577   1.469600   0.000000
    26  O    3.354684   3.853343   2.172371   1.469600   2.399847
    27  C    5.415395   5.585894   4.297538   1.780000   2.659333
    28  F    6.386370   6.252317   5.161410   2.567664   3.028846
    29  F    6.140056   6.538123   5.047845   2.567664   3.028846
    30  F    5.106384   5.476649   4.393535   2.567664   3.803218
    31  O    3.808826   3.208203   2.465355   1.670000   2.566082
                   26         27         28         29         30
    26  O    0.000000
    27  C    2.659333   0.000000
    28  F    3.803218   1.350000   0.000000
    29  F    3.028846   1.350000   2.204541   0.000000
    30  F    3.028846   1.350000   2.204541   2.204541   0.000000
    31  O    2.566082   2.817629   3.140149   3.984035   3.140149
                   31
    31  O    0.000000
 Stoichiometry    C11H10F3NO5S
 Framework group  C1[X(C11H10F3NO5S)]
 Deg. of freedom    87
 Full point group                 C1      NOp   1
 Largest Abelian subgroup         C1      NOp   1
 Largest concise Abelian subgroup C1      NOp   1
                         Standard orientation:                         
 ---------------------------------------------------------------------
 Center     Atomic      Atomic             Coordinates (Angstroms)
 Number     Number       Type             X           Y           Z
 ---------------------------------------------------------------------
      1          6           0       -3.121639   -0.998033    0.440530
      2          6           0       -4.074641   -0.122362   -0.096974
      3          6           0       -3.710341    1.187928   -0.435124
      4          6           0       -2.393038    1.622548   -0.235771
      5          6           0       -1.440036    0.746877    0.301732
      6          6           0       -1.804337   -0.563413    0.639883
      7          1           0       -3.399791   -1.998469    0.698715
      8          1           0       -4.437979    1.856522   -0.845520
      9          1           0       -2.114886    2.622984   -0.493957
     10          1           0       -1.076698   -1.232007    1.050278
     11          7           0       -5.456427   -0.578257   -0.306085
     12          8           0       -5.767541   -1.697250   -0.017304
     13          8           0       -6.270294    0.169568   -0.765115
     14          6           0        0.007549    1.224481    0.520801
     15          6           0        0.929133    0.377679    1.040585
     16          6           0        0.528803   -1.062201    1.412179
     17          1           0       -0.502112   -1.083290    1.697958
     18          1           0        0.678190   -1.702965    0.568375
     19          1           0        1.132180   -1.400783    2.228389
     20          6           0        0.407879    2.664361    0.149207
     21          1           0       -0.195497    3.002944   -0.667003
     22          1           0        0.258493    3.305125    0.993011
     23          1           0        1.438794    2.685451   -0.136572
     24         16           0        3.174443    0.514213   -0.128094
     25          8           0        4.555853    0.969983    0.080960
     26          8           0        2.589211    1.231888   -1.269220
     27          6           0        3.170581   -1.234255   -0.461630
     28          9           0        3.708186   -1.893523    0.586628
     29          9           0        3.899034   -1.482392   -1.570812
     30          9           0        1.901594   -1.652933   -0.653671
     31          8           0        2.273320    0.821168    1.244005
 ---------------------------------------------------------------------
 Rotational constants (GHZ):           0.7035951           0.1256870           0.1159016
 Standard basis: def2SVP (5D, 7F)
 There are   369 symmetry adapted cartesian basis functions of A   symmetry.
 There are   348 symmetry adapted basis functions of A   symmetry.
   348 basis functions,   607 primitive gaussians,   369 cartesian basis functions
    83 alpha electrons       83 beta electrons
       nuclear repulsion energy      1967.2826261538 Hartrees.
 NAtoms=   31 NActive=   31 NUniq=   31 SFac= 1.00D+00 NAtFMM=   60 NAOKFM=F Big=F
 Integral buffers will be    131072 words long.
 Raffenetti 2 integral format.
 Two-electron integral symmetry is turned on.
 One-electron integrals computed using PRISM.
   1 Symmetry operations used in ECPInt.
 ECPInt:  NShTT=   12561 NPrTT=   47899 LenC2=   10920 LenP2D=   28499.
 LDataN:  DoStor=T MaxTD1= 4 Len=   56
 NBasis=   348 RedAO= T EigKep=  2.59D-04  NBF=   348
 NBsUse=   348 1.00D-06 EigRej= -1.00D+00 NBFU=   348
 ExpMin= 1.22D-01 ExpMax= 9.18D+03 ExpMxC= 1.38D+03 IAcc=3 IRadAn=         5 AccDes= 0.00D+00
 Harris functional with IExCor= 1009 and IRadAn=       5 diagonalized for initial guess.
 HarFok:  IExCor= 1009 AccDes= 0.00D+00 IRadAn=         5 IDoV= 1 UseB2=F ITyADJ=14
 ICtDFT=  3500011 ScaDFX=  1.000000  1.000000  1.000000  1.000000
 FoFCou: FMM=F IPFlag=           0 FMFlag=      100000 FMFlg1=           0
         NFxFlg=           0 DoJE=T BraDBF=F KetDBF=T FulRan=T
         wScrn=  0.000000 ICntrl=       500 IOpCl=  0 I1Cent=   200000004 NGrid=           0
         NMat0=    1 NMatS0=      1 NMatT0=    0 NMatD0=    1 NMtDS0=    0 NMtDT0=    0
 Petite list used in FoFCou.
 Requested convergence on RMS density matrix=1.00D-08 within 128 cycles.
 Requested convergence on MAX density matrix=1.00D-06.
 Requested convergence on             energy=1.00D-06.
 No special actions if energy rises.
 Integral accuracy reduced to 1.0D-05 until final iterations.
 Initial convergence to 1.0D-05 achieved.  Increase integral accuracy.
 SCF Done:  E(RM062X) =  -1551.97252768     A.U. after   16 cycles
            NFock= 16  Conv=0.49D-08     -V/T= 2.0059

 **********************************************************************

            Population analysis using the SCF Density.

 **********************************************************************

 Orbital symmetries:
       Occupied  (A) (A) (A) (A) (A) (A) (A) (A) (A) (A) (A) (A)
                 (A) (A) (A) (A) (A) (A) (A) (A) (A) (A) (A) (A)
                 (A) (A) (A) (A) (A) (A) (A) (A) (A) (A) (A) (A)
                 (A) (A) (A) (A) (A) (A) (A) (A) (A) (A) (A) (A)
                 (A) (A) (A) (A) (A) (A) (A) (A) (A) (A) (A) (A)
                 (A) (A) (A) (A) (A) (A) (A) (A) (A) (A) (A) (A)
                 (A) (A) (A) (A) (A) (A) (A) (A) (A) (A) (A)
       Virtual   (A) (A) (A) (A) (A) (A) (A) (A) (A) (A) (A) (A)
                 (A) (A) (A) (A) (A) (A) (A) (A) (A) (A) (A) (A)
                 (A) (A) (A) (A) (A) (A) (A) (A) (A) (A) (A) (A)
                 (A) (A) (A) (A) (A) (A) (A) (A) (A) (A) (A) (A)
                 (A) (A) (A) (A) (A) (A) (A) (A) (A) (A) (A) (A)
                 (A) (A) (A) (A) (A) (A) (A) (A) (A) (A) (A) (A)
                 (A) (A) (A) (A) (A) (A) (A) (A) (A) (A) (A) (A)
                 (A) (A) (A) (A) (A) (A) (A) (A) (A) (A) (A) (A)
                 (A) (A) (A) (A) (A) (A) (A) (A) (A) (A) (A) (A)
                 (A) (A) (A) (A) (A) (A) (A) (A) (A) (A) (A) (A)
                 (A) (A) (A) (A) (A) (A) (A) (A) (A) (A) (A) (A)
                 (A) (A) (A) (A) (A) (A) (A) (A) (A) (A) (A) (A)
                 (A) (A) (A) (A) (A) (A) (A) (A) (A) (A) (A) (A)
                 (A) (A) (A) (A) (A) (A) (A) (A) (A) (A) (A) (A)
                 (A) (A) (A) (A) (A) (A) (A) (A) (A) (A) (A) (A)
                 (A) (A) (A) (A) (A) (A) (A) (A) (A) (A) (A) (A)
                 (A) (A) (A) (A) (A) (A) (A) (A) (A) (A) (A) (A)
                 (A) (A) (A) (A) (A) (A) (A) (A) (A) (A) (A) (A)
                 (A) (A) (A) (A) (A) (A) (A) (A) (A) (A) (A) (A)
                 (A) (A) (A) (A) (A) (A) (A) (A) (A) (A) (A) (A)
                 (A) (A) (A) (A) (A) (A) (A) (A) (A) (A) (A) (A)
                 (A) (A) (A) (A) (A) (A) (A) (A) (A) (A) (A) (A)
                 (A)
 The electronic state is 1-A.
 Alpha  occ. eigenvalues --  -90.19631 -25.35958 -25.35301 -25.35224 -19.75197
 Alpha  occ. eigenvalues --  -19.66754 -19.66720 -19.66211 -19.66202 -15.01068
 Alpha  occ. eigenvalues --  -10.89254 -10.65931 -10.63538 -10.61592 -10.61135
 Alpha  occ. eigenvalues --  -10.60351 -10.60183 -10.59796 -10.57962 -10.57284
 Alpha  occ. eigenvalues --  -10.56504  -8.53012  -6.45466  -6.45312  -6.45283
 Alpha  occ. eigenvalues --   -1.50827  -1.42078  -1.41236  -1.37943  -1.29705
 Alpha  occ. eigenvalues --   -1.20128  -1.17550  -1.13690  -1.00910  -0.95994
 Alpha  occ. eigenvalues --   -0.92634  -0.90417  -0.89187  -0.85862  -0.82204
 Alpha  occ. eigenvalues --   -0.80106  -0.78893  -0.76103  -0.75594  -0.74390
 Alpha  occ. eigenvalues --   -0.72653  -0.69157  -0.66453  -0.64481  -0.64343
 Alpha  occ. eigenvalues --   -0.64170  -0.63871  -0.62641  -0.61842  -0.60521
 Alpha  occ. eigenvalues --   -0.60146  -0.59908  -0.59442  -0.58231  -0.57925
 Alpha  occ. eigenvalues --   -0.56980  -0.55773  -0.54390  -0.53763  -0.52081
 Alpha  occ. eigenvalues --   -0.51758  -0.50296  -0.47909  -0.47680  -0.47359
 Alpha  occ. eigenvalues --   -0.46656  -0.45427  -0.43978  -0.43211  -0.42354
 Alpha  occ. eigenvalues --   -0.40512  -0.39971  -0.38774  -0.37789  -0.37681
 Alpha  occ. eigenvalues --   -0.37339  -0.34589  -0.31684
 Alpha virt. eigenvalues --   -0.06843  -0.01920  -0.01493   0.00391   0.04122
 Alpha virt. eigenvalues --    0.05991   0.08327   0.08560   0.10652   0.11214
 Alpha virt. eigenvalues --    0.12182   0.13103   0.15074   0.15202   0.16643
 Alpha virt. eigenvalues --    0.17012   0.18113   0.19393   0.19913   0.20438
 Alpha virt. eigenvalues --    0.21250   0.21642   0.22168   0.23528   0.23769
 Alpha virt. eigenvalues --    0.25150   0.27533   0.29043   0.29568   0.31643
 Alpha virt. eigenvalues --    0.31901   0.33967   0.34371   0.37461   0.38464
 Alpha virt. eigenvalues --    0.39026   0.42345   0.43261   0.44016   0.44114
 Alpha virt. eigenvalues --    0.45074   0.45437   0.46669   0.48481   0.48648
 Alpha virt. eigenvalues --    0.48826   0.49462   0.51154   0.52514   0.53944
 Alpha virt. eigenvalues --    0.55249   0.56126   0.56725   0.57762   0.59090
 Alpha virt. eigenvalues --    0.61435   0.63071   0.63279   0.65025   0.65489
 Alpha virt. eigenvalues --    0.66234   0.66580   0.67811   0.68285   0.68581
 Alpha virt. eigenvalues --    0.69520   0.70171   0.70750   0.71645   0.72022
 Alpha virt. eigenvalues --    0.72227   0.73005   0.73659   0.74461   0.75327
 Alpha virt. eigenvalues --    0.76281   0.78160   0.78445   0.79986   0.80439
 Alpha virt. eigenvalues --    0.82398   0.82896   0.83951   0.85324   0.85971
 Alpha virt. eigenvalues --    0.88529   0.90258   0.91191   0.91365   0.94336
 Alpha virt. eigenvalues --    0.95473   0.97100   0.98175   0.99374   1.01367
 Alpha virt. eigenvalues --    1.02886   1.04823   1.05560   1.06100   1.07329
 Alpha virt. eigenvalues --    1.08240   1.11230   1.11268   1.12045   1.14240
 Alpha virt. eigenvalues --    1.14657   1.15468   1.16712   1.17910   1.19421
 Alpha virt. eigenvalues --    1.20103   1.21659   1.22213   1.22646   1.25165
 Alpha virt. eigenvalues --    1.25756   1.26123   1.26684   1.27932   1.28686
 Alpha virt. eigenvalues --    1.29317   1.30633   1.31584   1.32401   1.33270
 Alpha virt. eigenvalues --    1.36677   1.38048   1.38854   1.39400   1.41362
 Alpha virt. eigenvalues --    1.42639   1.44127   1.44431   1.46716   1.48103
 Alpha virt. eigenvalues --    1.48672   1.51707   1.53879   1.54408   1.56758
 Alpha virt. eigenvalues --    1.58063   1.59533   1.60806   1.62765   1.64435
 Alpha virt. eigenvalues --    1.64754   1.69460   1.70527   1.71329   1.72336
 Alpha virt. eigenvalues --    1.73597   1.74523   1.75882   1.76363   1.76752
 Alpha virt. eigenvalues --    1.79520   1.81470   1.82490   1.83506   1.83996
 Alpha virt. eigenvalues --    1.84720   1.85359   1.86241   1.86853   1.88562
 Alpha virt. eigenvalues --    1.89254   1.91577   1.93389   1.94144   1.97097
 Alpha virt. eigenvalues --    1.97408   1.98598   1.99500   2.00181   2.02108
 Alpha virt. eigenvalues --    2.04035   2.05385   2.06924   2.07765   2.08923
 Alpha virt. eigenvalues --    2.11853   2.13197   2.14327   2.16175   2.17595
 Alpha virt. eigenvalues --    2.20184   2.21136   2.25828   2.27722   2.28399
 Alpha virt. eigenvalues --    2.29889   2.31580   2.32394   2.36802   2.37462
 Alpha virt. eigenvalues --    2.42810   2.44611   2.46454   2.47691   2.49402
 Alpha virt. eigenvalues --    2.51358   2.55569   2.56506   2.58770   2.60129
 Alpha virt. eigenvalues --    2.61304   2.63637   2.65140   2.66762   2.67153
 Alpha virt. eigenvalues --    2.67511   2.67774   2.68045   2.68670   2.70044
 Alpha virt. eigenvalues --    2.71550   2.71892   2.73574   2.75939   2.77783
 Alpha virt. eigenvalues --    2.78892   2.79704   2.82146   2.82910   2.85820
 Alpha virt. eigenvalues --    2.87886   2.88517   2.90172   2.92887   2.94199
 Alpha virt. eigenvalues --    2.97553   2.98239   2.99309   3.00872   3.01744
 Alpha virt. eigenvalues --    3.02659   3.05717   3.06193   3.06278   3.06626
 Alpha virt. eigenvalues --    3.08186   3.10569   3.12498   3.13660   3.16743
 Alpha virt. eigenvalues --    3.17165   3.17525   3.17835   3.21354   3.31944
 Alpha virt. eigenvalues --    3.32247   3.35749   3.37726   3.42521   3.44354
 Alpha virt. eigenvalues --    3.45931   3.51173   3.53023   3.53837   3.61146
 Alpha virt. eigenvalues --    3.65675   3.82915   3.83260   3.84759   3.85083
          Condensed to atoms (all electrons):
               1          2          3          4          5          6
     1  C    5.207126   0.228902   0.045741  -0.142984   0.104916   0.178422
     2  C    0.228902   5.374935   0.225034   0.122257  -0.189566   0.129082
     3  C    0.045741   0.225034   5.154321   0.243943   0.112047  -0.147551
     4  C   -0.142984   0.122257   0.243943   5.210754   0.234306   0.045300
     5  C    0.104916  -0.189566   0.112047   0.234306   5.317404   0.237607
     6  C    0.178422   0.129082  -0.147551   0.045300   0.237607   5.507601
     7  H    0.456386  -0.070292   0.014907  -0.002521   0.016964  -0.065679
     8  H    0.015005  -0.068704   0.452000  -0.059528   0.015866  -0.002515
     9  H   -0.001828   0.015027  -0.062549   0.460270  -0.068050   0.013620
    10  H   -0.059580   0.016331  -0.002390   0.013814  -0.078102   0.490422
    11  N   -0.060751   0.265357  -0.060521   0.005837  -0.000482   0.006502
    12  O    0.019522  -0.115642   0.005255   0.000014   0.000001   0.002362
    13  O    0.005455  -0.114406   0.019352   0.001862  -0.000014   0.000021
    14  C    0.009428   0.001386   0.011617  -0.078172   0.295298  -0.057797
    15  C    0.002513  -0.000324  -0.000158   0.013813  -0.028125  -0.042010
    16  C    0.004329  -0.000485  -0.000079  -0.001087  -0.009320  -0.157787
    17  H    0.004436  -0.000601  -0.000255   0.000486   0.015071  -0.114480
    18  H    0.001338  -0.000085   0.000032  -0.000275  -0.001212  -0.000912
    19  H   -0.000487   0.000018  -0.000002   0.000089   0.000800   0.006651
    20  C   -0.000100  -0.000034   0.000672  -0.009096  -0.049655   0.008643
    21  H    0.000053  -0.000108   0.001417   0.004479  -0.019285  -0.000509
    22  H    0.000010   0.000002  -0.000022   0.001955  -0.003041  -0.000462
    23  H   -0.000003   0.000004  -0.000049  -0.000011   0.009099   0.000078
    24  S   -0.000001   0.000000   0.000000   0.000010   0.000249  -0.000054
    25  O    0.000000  -0.000000   0.000000  -0.000000  -0.000000  -0.000000
    26  O    0.000001  -0.000000   0.000000  -0.000031  -0.000629  -0.000005
    27  C   -0.000000   0.000000   0.000000  -0.000006  -0.000122   0.000116
    28  F    0.000000  -0.000000   0.000000  -0.000000  -0.000001  -0.000000
    29  F   -0.000000   0.000000  -0.000000   0.000000  -0.000000  -0.000000
    30  F    0.000003  -0.000000   0.000000  -0.000002   0.000027  -0.000007
    31  O    0.000003  -0.000000   0.000000  -0.000076   0.003381  -0.000336
               7          8          9         10         11         12
     1  C    0.456386   0.015005  -0.001828  -0.059580  -0.060751   0.019522
     2  C   -0.070292  -0.068704   0.015027   0.016331   0.265357  -0.115642
     3  C    0.014907   0.452000  -0.062549  -0.002390  -0.060521   0.005255
     4  C   -0.002521  -0.059528   0.460270   0.013814   0.005837   0.000014
     5  C    0.016964   0.015866  -0.068050  -0.078102  -0.000482   0.000001
     6  C   -0.065679  -0.002515   0.013620   0.490422   0.006502   0.002362
     7  H    0.630204  -0.000213   0.000024  -0.016672  -0.013938   0.019740
     8  H   -0.000213   0.618931  -0.011958   0.000054  -0.014300   0.000478
     9  H    0.000024  -0.011958   0.650393  -0.000139  -0.000086   0.000001
    10  H   -0.016672   0.000054  -0.000139   0.767724  -0.000137  -0.000089
    11  N   -0.013938  -0.014300  -0.000086  -0.000137   5.963587   0.342240
    12  O    0.019740   0.000478   0.000001  -0.000089   0.342240   8.120330
    13  O    0.000489   0.018905  -0.000027   0.000001   0.340637  -0.143711
    14  C   -0.000293  -0.000265  -0.022456  -0.024448   0.000011   0.000000
    15  C    0.000051   0.000006   0.000885   0.004450  -0.000000  -0.000000
    16  C    0.000755  -0.000002   0.000020  -0.085073   0.000002   0.000000
    17  H    0.001185  -0.000004   0.000025  -0.001477   0.000011   0.000001
    18  H    0.000024  -0.000000  -0.000003   0.022874   0.000000  -0.000000
    19  H   -0.000021  -0.000000  -0.000001  -0.000042  -0.000000   0.000000
    20  C    0.000002   0.000008   0.006026  -0.000176  -0.000000   0.000000
    21  H   -0.000000   0.000056  -0.000188   0.000035  -0.000000  -0.000000
    22  H    0.000000  -0.000002   0.000531  -0.000032  -0.000000  -0.000000
    23  H   -0.000000  -0.000000  -0.000050   0.000016   0.000000   0.000000
    24  S    0.000000   0.000000  -0.000003  -0.000079   0.000000  -0.000000
    25  O    0.000000  -0.000000  -0.000000  -0.000000   0.000000   0.000000
    26  O    0.000000   0.000000  -0.000008  -0.000008  -0.000000   0.000000
    27  C   -0.000000   0.000000  -0.000000   0.000138  -0.000000   0.000000
    28  F   -0.000000  -0.000000  -0.000000   0.000006  -0.000000   0.000000
    29  F   -0.000000  -0.000000   0.000000  -0.000000  -0.000000   0.000000
    30  F    0.000000   0.000000  -0.000000  -0.001601   0.000000  -0.000000
    31  O    0.000000  -0.000000  -0.000002   0.000183   0.000000  -0.000000
              13         14         15         16         17         18
     1  C    0.005455   0.009428   0.002513   0.004329   0.004436   0.001338
     2  C   -0.114406   0.001386  -0.000324  -0.000485  -0.000601  -0.000085
     3  C    0.019352   0.011617  -0.000158  -0.000079  -0.000255   0.000032
     4  C    0.001862  -0.078172   0.013813  -0.001087   0.000486  -0.000275
     5  C   -0.000014   0.295298  -0.028125  -0.009320   0.015071  -0.001212
     6  C    0.000021  -0.057797  -0.042010  -0.157787  -0.114480  -0.000912
     7  H    0.000489  -0.000293   0.000051   0.000755   0.001185   0.000024
     8  H    0.018905  -0.000265   0.000006  -0.000002  -0.000004  -0.000000
     9  H   -0.000027  -0.022456   0.000885   0.000020   0.000025  -0.000003
    10  H    0.000001  -0.024448   0.004450  -0.085073  -0.001477   0.022874
    11  N    0.340637   0.000011  -0.000000   0.000002   0.000011   0.000000
    12  O   -0.143711   0.000000  -0.000000   0.000000   0.000001  -0.000000
    13  O    8.121396   0.000000  -0.000000  -0.000000  -0.000000  -0.000000
    14  C    0.000000   5.208108   0.469696  -0.063317  -0.023254  -0.004961
    15  C   -0.000000   0.469696   5.269481   0.398704   0.018163  -0.022227
    16  C   -0.000000  -0.063317   0.398704   4.754021   0.400957   0.402390
    17  H   -0.000000  -0.023254   0.018163   0.400957   0.682747  -0.038048
    18  H   -0.000000  -0.004961  -0.022227   0.402390  -0.038048   0.559053
    19  H    0.000000   0.011153  -0.019893   0.347583   0.000245  -0.017093
    20  C    0.000000   0.387233  -0.072905   0.008839  -0.000140  -0.000239
    21  H    0.000000  -0.001672   0.007337  -0.000273  -0.000033   0.000045
    22  H   -0.000000  -0.016044  -0.000791  -0.000279   0.000054  -0.000024
    23  H    0.000000  -0.004232  -0.027726   0.000474  -0.000048   0.000027
    24  S   -0.000000  -0.000398  -0.096773  -0.009519   0.000283   0.002482
    25  O    0.000000   0.000027   0.001782  -0.000089   0.000001   0.000001
    26  O   -0.000000   0.004863   0.003995  -0.000154  -0.000006   0.000385
    27  C    0.000000   0.003564  -0.003675   0.008346  -0.000224  -0.001144
    28  F    0.000000  -0.000035  -0.001398   0.001645   0.000031   0.000159
    29  F    0.000000  -0.000012  -0.000004  -0.000002   0.000002   0.000015
    30  F   -0.000000  -0.002820   0.010901  -0.035235   0.002322   0.006648
    31  O   -0.000000  -0.082577   0.266629  -0.051503   0.001860   0.001120
              19         20         21         22         23         24
     1  C   -0.000487  -0.000100   0.000053   0.000010  -0.000003  -0.000001
     2  C    0.000018  -0.000034  -0.000108   0.000002   0.000004   0.000000
     3  C   -0.000002   0.000672   0.001417  -0.000022  -0.000049   0.000000
     4  C    0.000089  -0.009096   0.004479   0.001955  -0.000011   0.000010
     5  C    0.000800  -0.049655  -0.019285  -0.003041   0.009099   0.000249
     6  C    0.006651   0.008643  -0.000509  -0.000462   0.000078  -0.000054
     7  H   -0.000021   0.000002  -0.000000   0.000000  -0.000000   0.000000
     8  H   -0.000000   0.000008   0.000056  -0.000002  -0.000000   0.000000
     9  H   -0.000001   0.006026  -0.000188   0.000531  -0.000050  -0.000003
    10  H   -0.000042  -0.000176   0.000035  -0.000032   0.000016  -0.000079
    11  N   -0.000000  -0.000000  -0.000000  -0.000000   0.000000   0.000000
    12  O    0.000000   0.000000  -0.000000  -0.000000   0.000000  -0.000000
    13  O    0.000000   0.000000   0.000000  -0.000000   0.000000  -0.000000
    14  C    0.011153   0.387233  -0.001672  -0.016044  -0.004232  -0.000398
    15  C   -0.019893  -0.072905   0.007337  -0.000791  -0.027726  -0.096773
    16  C    0.347583   0.008839  -0.000273  -0.000279   0.000474  -0.009519
    17  H    0.000245  -0.000140  -0.000033   0.000054  -0.000048   0.000283
    18  H   -0.017093  -0.000239   0.000045  -0.000024   0.000027   0.002482
    19  H    0.623326  -0.000275  -0.000001   0.000039  -0.000002  -0.001281
    20  C   -0.000275   4.521502   0.380696   0.387108   0.388750  -0.001259
    21  H   -0.000001   0.380696   0.612737  -0.020618  -0.014776   0.000303
    22  H    0.000039   0.387108  -0.020618   0.598771  -0.011157  -0.000320
    23  H   -0.000002   0.388750  -0.014776  -0.011157   0.574902  -0.003059
    24  S   -0.001281  -0.001259   0.000303  -0.000320  -0.003059  14.087369
    25  O   -0.000022  -0.000154   0.000002   0.000010  -0.000221   0.433822
    26  O    0.000020  -0.017742   0.000249   0.000646   0.022279   0.384199
    27  C    0.002392  -0.000259   0.000002   0.000004   0.001018   0.224336
    28  F    0.001116   0.000002  -0.000000  -0.000000  -0.000010  -0.042945
    29  F    0.000012   0.000001  -0.000000   0.000000  -0.000008  -0.038098
    30  F   -0.000910  -0.000009   0.000003  -0.000000  -0.000079  -0.046173
    31  O   -0.000666   0.000678   0.000482   0.000433   0.004597   0.176767
              25         26         27         28         29         30
     1  C    0.000000   0.000001  -0.000000   0.000000  -0.000000   0.000003
     2  C   -0.000000  -0.000000   0.000000  -0.000000   0.000000  -0.000000
     3  C    0.000000   0.000000   0.000000   0.000000  -0.000000   0.000000
     4  C   -0.000000  -0.000031  -0.000006  -0.000000   0.000000  -0.000002
     5  C   -0.000000  -0.000629  -0.000122  -0.000001  -0.000000   0.000027
     6  C   -0.000000  -0.000005   0.000116  -0.000000  -0.000000  -0.000007
     7  H    0.000000   0.000000  -0.000000  -0.000000  -0.000000   0.000000
     8  H   -0.000000   0.000000   0.000000  -0.000000  -0.000000   0.000000
     9  H   -0.000000  -0.000008  -0.000000  -0.000000   0.000000  -0.000000
    10  H   -0.000000  -0.000008   0.000138   0.000006  -0.000000  -0.001601
    11  N    0.000000  -0.000000  -0.000000  -0.000000  -0.000000   0.000000
    12  O    0.000000   0.000000   0.000000   0.000000   0.000000  -0.000000
    13  O    0.000000  -0.000000   0.000000   0.000000   0.000000  -0.000000
    14  C    0.000027   0.004863   0.003564  -0.000035  -0.000012  -0.002820
    15  C    0.001782   0.003995  -0.003675  -0.001398  -0.000004   0.010901
    16  C   -0.000089  -0.000154   0.008346   0.001645  -0.000002  -0.035235
    17  H    0.000001  -0.000006  -0.000224   0.000031   0.000002   0.002322
    18  H    0.000001   0.000385  -0.001144   0.000159   0.000015   0.006648
    19  H   -0.000022   0.000020   0.002392   0.001116   0.000012  -0.000910
    20  C   -0.000154  -0.017742  -0.000259   0.000002   0.000001  -0.000009
    21  H    0.000002   0.000249   0.000002  -0.000000  -0.000000   0.000003
    22  H    0.000010   0.000646   0.000004  -0.000000   0.000000  -0.000000
    23  H   -0.000221   0.022279   0.001018  -0.000010  -0.000008  -0.000079
    24  S    0.433822   0.384199   0.224336  -0.042945  -0.038098  -0.046173
    25  O    8.097693  -0.062343  -0.014309   0.000055  -0.000449   0.000350
    26  O   -0.062343   8.164839  -0.021073   0.000385   0.000006   0.000823
    27  C   -0.014309  -0.021073   4.247755   0.326592   0.349350   0.296034
    28  F    0.000055   0.000385   0.326592   8.957878  -0.039101  -0.038208
    29  F   -0.000449   0.000006   0.349350  -0.039101   8.920058  -0.037945
    30  F    0.000350   0.000823   0.296034  -0.038208  -0.037945   9.014553
    31  O   -0.029070  -0.040012  -0.020526   0.000681   0.000158   0.000408
              31
     1  C    0.000003
     2  C   -0.000000
     3  C    0.000000
     4  C   -0.000076
     5  C    0.003381
     6  C   -0.000336
     7  H    0.000000
     8  H   -0.000000
     9  H   -0.000002
    10  H    0.000183
    11  N    0.000000
    12  O   -0.000000
    13  O   -0.000000
    14  C   -0.082577
    15  C    0.266629
    16  C   -0.051503
    17  H    0.001860
    18  H    0.001120
    19  H   -0.000666
    20  C    0.000678
    21  H    0.000482
    22  H    0.000433
    23  H    0.004597
    24  S    0.176767
    25  O   -0.029070
    26  O   -0.040012
    27  C   -0.020526
    28  F    0.000681
    29  F    0.000158
    30  F    0.000408
    31  O    8.177391
 Mulliken charges:
               1
     1  C   -0.017855
     2  C    0.181912
     3  C   -0.012764
     4  C   -0.065400
     5  C    0.084568
     6  C   -0.036325
     7  H    0.028898
     8  H    0.036182
     9  H    0.020525
    10  H   -0.046003
    11  N    0.226032
    12  O   -0.250503
    13  O   -0.249961
    14  C   -0.019630
    15  C   -0.152397
    16  C    0.086138
    17  H    0.050690
    18  H    0.089629
    19  H    0.047251
    20  C    0.061886
    21  H    0.049568
    22  H    0.063229
    23  H    0.060187
    24  S    0.930140
    25  O   -0.427086
    26  O   -0.440681
    27  C    0.601691
    28  F   -0.166852
    29  F   -0.153984
    30  F   -0.169084
    31  O   -0.410002
 Sum of Mulliken charges =  -0.00000
 Mulliken charges with hydrogens summed into heavy atoms:
               1
     1  C    0.011043
     2  C    0.181912
     3  C    0.023418
     4  C   -0.044876
     5  C    0.084568
     6  C   -0.082327
    11  N    0.226032
    12  O   -0.250503
    13  O   -0.249961
    14  C   -0.019630
    15  C   -0.152397
    16  C    0.273708
    20  C    0.234870
    24  S    0.930140
    25  O   -0.427086
    26  O   -0.440681
    27  C    0.601691
    28  F   -0.166852
    29  F   -0.153984
    30  F   -0.169084
    31  O   -0.410002
 Electronic spatial extent (au):  <R**2>=           8546.0888
 Charge=              0.0000 electrons
 Dipole moment (field-independent basis, Debye):
    X=              1.6346    Y=             -0.8482    Z=              1.6899  Tot=              2.4994
 Quadrupole moment (field-independent basis, Debye-Ang):
   XX=           -176.9827   YY=           -120.3817   ZZ=           -127.8081
   XY=            -17.3894   XZ=             -2.1484   YZ=             -1.2047
 Traceless Quadrupole moment (field-independent basis, Debye-Ang):
   XX=            -35.2586   YY=             21.3425   ZZ=             13.9161
   XY=            -17.3894   XZ=             -2.1484   YZ=             -1.2047
 Octapole moment (field-independent basis, Debye-Ang**2):
  XXX=            261.2926  YYY=            -14.7951  ZZZ=            -14.1547  XYY=             20.3888
  XXY=              2.1659  XXZ=             14.6335  XZZ=             15.2432  YZZ=            -18.7581
  YYZ=             -4.6198  XYZ=              8.2311
 Hexadecapole moment (field-independent basis, Debye-Ang**3):
 XXXX=         -10729.6774 YYYY=          -1276.0490 ZZZZ=           -529.6704 XXXY=           -459.8413
 XXXZ=           -213.8934 YYYX=           -102.9060 YYYZ=              7.5548 ZZZX=             -9.0272
 ZZZY=             10.2213 XXYY=          -1709.2215 XXZZ=          -1500.0450 YYZZ=           -307.0088
 XXYZ=              9.6465 YYXZ=              7.8548 ZZXY=            -16.9565
 N-N= 1.967282626154D+03 E-N=-7.583980694748D+03  KE= 1.542804676133D+03
   1 Symmetry operations used in ECPInt.
 ECPInt:  NShTT=   12561 NPrTT=   47899 LenC2=   10920 LenP2D=   28499.
 LDataN:  DoStor=T MaxTD1= 5 Len=  102
 Calling FoFJK, ICntrl=      2127 FMM=F ISym2X=0 I1Cent= 0 IOpClX= 0 NMat=1 NMatS=1 NMatT=0.
 ***** Axes restored to original set *****
 -------------------------------------------------------------------
 Center     Atomic                   Forces (Hartrees/Bohr)
 Number     Number              X              Y              Z
 -------------------------------------------------------------------
      1        6           0.013513697   -0.001147768    0.014341540
      2        6           0.015273091   -0.000506187   -0.010849112
      3        6           0.001495691    0.000129299   -0.014493831
      4        6          -0.025566790   -0.000630870   -0.005856111
      5        6           0.033674726   -0.002037299   -0.023878287
      6        6          -0.042827356    0.011948737    0.068332085
      7        1          -0.014376922    0.000275696   -0.005204091
      8        1          -0.002468883   -0.000018568    0.014808559
      9        1           0.009806588   -0.000633186    0.008736310
     10        1          -0.065539882    0.054370727    0.076298815
     11        7          -0.014677156    0.000269624    0.009497833
     12        8          -0.008085900   -0.000060003   -0.037636661
     13        8           0.028286085   -0.000045701    0.025653743
     14        6           0.004433571    0.001640208    0.008843556
     15        6          -0.029815892   -0.009735363    0.016035848
     16        6           0.070326079   -0.019646471   -0.038782697
     17        1           0.056405633   -0.064135885   -0.075242569
     18        1          -0.018376295   -0.001378315    0.002027341
     19        1           0.005999811   -0.006420811   -0.022209740
     20        6          -0.034587302    0.000456551   -0.017156957
     21        1           0.001921667    0.009593791    0.015337103
     22        1           0.005678087   -0.020147946    0.005636613
     23        1           0.011581498    0.005758544   -0.004712348
     24       16           0.129042751   -0.001841789    0.056629123
     25        8          -0.050273780   -0.015457950   -0.008623688
     26        8          -0.038874879   -0.009520696   -0.025563758
     27        6          -0.038690492    0.024819151   -0.038396733
     28        9           0.001263482    0.015773130    0.028471812
     29        9          -0.009518519   -0.039517343    0.009128644
     30        9           0.033680934    0.029379791   -0.021528152
     31        8          -0.028703342    0.038466902   -0.009644192
 -------------------------------------------------------------------
 Cartesian Forces:  Max     0.129042751 RMS     0.030704335

 GradGradGradGradGradGradGradGradGradGradGradGradGradGradGradGradGradGrad
 Berny optimization.
 FormGI is forming the generalized inverse of G from B-inverse, IUseBI=4.
 Internal  Forces:  Max     0.521501720 RMS     0.083127827
 Search for a local minimum.
 Step number   1 out of a maximum of  155
 All quantities printed in internal units (Hartrees-Bohrs-Radians)
 Mixed Optimization -- RFO/linear search
 Second derivative matrix not updated -- first step.
 ITU=  0
     Eigenvalues ---    0.00237   0.00237   0.00237   0.00635   0.00766
     Eigenvalues ---    0.00766   0.00935   0.01228   0.01295   0.01498
     Eigenvalues ---    0.01680   0.01693   0.02070   0.02070   0.02070
     Eigenvalues ---    0.02070   0.02070   0.02070   0.02070   0.02681
     Eigenvalues ---    0.07243   0.07243   0.07243   0.07243   0.08130
     Eigenvalues ---    0.08789   0.09110   0.09110   0.16000   0.16000
     Eigenvalues ---    0.16000   0.16000   0.16000   0.16000   0.16000
     Eigenvalues ---    0.16000   0.16000   0.16000   0.17310   0.21379
     Eigenvalues ---    0.22000   0.22981   0.24000   0.25000   0.25000
     Eigenvalues ---    0.25000   0.25000   0.25000   0.25000   0.25000
     Eigenvalues ---    0.25000   0.25000   0.25000   0.25000   0.25000
     Eigenvalues ---    0.25000   0.27758   0.28519   0.28519   0.28519
     Eigenvalues ---    0.35740   0.37230   0.37230   0.37230   0.37230
     Eigenvalues ---    0.37230   0.37230   0.37230   0.37230   0.37230
     Eigenvalues ---    0.37230   0.39757   0.40989   0.41268   0.41640
     Eigenvalues ---    0.45389   0.45389   0.45389   0.45389   0.53930
     Eigenvalues ---    0.55021   0.55021   0.55021   0.87694   0.87694
     Eigenvalues ---    1.06448   1.06448
 RFO step:  Lambda=-8.88816737D-01 EMin= 2.36824211D-03
 Linear search not attempted -- first point.
 Maximum step size (   0.300) exceeded in Quadratic search.
    -- Step size scaled by   0.355
 Iteration  1 RMS(Cart)=  0.24689957 RMS(Int)=  0.01156550
 Iteration  2 RMS(Cart)=  0.08789698 RMS(Int)=  0.00123867
 Iteration  3 RMS(Cart)=  0.00287001 RMS(Int)=  0.00010949
 Iteration  4 RMS(Cart)=  0.00000178 RMS(Int)=  0.00010949
 Iteration  5 RMS(Cart)=  0.00000000 RMS(Int)=  0.00010949
 Variable       Old X    -DE/DX   Delta X   Delta X   Delta X     New X
                                 (Linear)    (Quad)   (Total)
    R1        2.64826  -0.03866   0.00000  -0.01043  -0.01047   2.63779
    R2        2.64826  -0.00057   0.00000  -0.00006  -0.00007   2.64819
    R3        2.02201   0.01505   0.00000   0.00424   0.00424   2.02625
    R4        2.64826  -0.04411   0.00000  -0.01196  -0.01200   2.63626
    R5        2.77790  -0.00603   0.00000  -0.00172  -0.00172   2.77618
    R6        2.64826  -0.01779   0.00000  -0.00479  -0.00479   2.64348
    R7        2.02201   0.01481   0.00000   0.00417   0.00417   2.02618
    R8        2.64826   0.02851   0.00000   0.00775   0.00779   2.65605
    R9        2.02201   0.01286   0.00000   0.00362   0.00362   2.02563
   R10        2.64826   0.05049   0.00000   0.01365   0.01368   2.66195
   R11        2.91018   0.12179   0.00000   0.03684   0.03684   2.94702
   R12        2.02201  -0.07630   0.00000  -0.02148  -0.02148   2.00052
   R13        2.26162   0.02582   0.00000   0.00469   0.00469   2.26632
   R14        2.26162   0.02565   0.00000   0.00466   0.00466   2.26629
   R15        2.56096   0.12770   0.00000   0.03175   0.03175   2.59271
   R16        2.91018  -0.01379   0.00000  -0.00417  -0.00417   2.90601
   R17        2.91018  -0.03194   0.00000  -0.00966  -0.00966   2.90052
   R18        2.70231   0.00296   0.00000   0.00081   0.00081   2.70312
   R19        2.02201  -0.04974   0.00000  -0.01401  -0.01401   2.00800
   R20        2.02201   0.00367   0.00000   0.00103   0.00103   2.02304
   R21        2.02201   0.02315   0.00000   0.00652   0.00652   2.02853
   R22        2.02201   0.01770   0.00000   0.00498   0.00498   2.02699
   R23        2.02201   0.02157   0.00000   0.00607   0.00607   2.02808
   R24        2.02201   0.01333   0.00000   0.00375   0.00375   2.02576
   R25        2.77714  -0.03923   0.00000  -0.00789  -0.00789   2.76925
   R26        2.77714  -0.03147   0.00000  -0.00633  -0.00633   2.77081
   R27        3.36371   0.03567   0.00000   0.01086   0.01086   3.37457
   R28        3.15584   0.01110   0.00000   0.00306   0.00306   3.15891
   R29        2.55113  -0.03246   0.00000  -0.00801  -0.00801   2.54312
   R30        2.55113  -0.04153   0.00000  -0.01025  -0.01025   2.54088
   R31        2.55113  -0.03993   0.00000  -0.00985  -0.00985   2.54128
    A1        2.09440   0.01716   0.00000   0.00519   0.00514   2.09953
    A2        2.09440  -0.01129   0.00000  -0.00351  -0.00349   2.09091
    A3        2.09440  -0.00587   0.00000  -0.00168  -0.00165   2.09274
    A4        2.09440  -0.00809   0.00000  -0.00328  -0.00336   2.09104
    A5        2.09440   0.00458   0.00000   0.00181   0.00185   2.09624
    A6        2.09440   0.00351   0.00000   0.00147   0.00151   2.09591
    A7        2.09440  -0.00275   0.00000  -0.00151  -0.00154   2.09286
    A8        2.09440  -0.00112   0.00000  -0.00009  -0.00008   2.09432
    A9        2.09440   0.00387   0.00000   0.00160   0.00161   2.09601
   A10        2.09440   0.06418   0.00000   0.02055   0.02060   2.11499
   A11        2.09440  -0.03478   0.00000  -0.01119  -0.01121   2.08318
   A12        2.09440  -0.02940   0.00000  -0.00936  -0.00939   2.08501
   A13        2.09440  -0.10128   0.00000  -0.03112  -0.03105   2.06334
   A14        2.09440  -0.24673   0.00000  -0.07716  -0.07721   2.01719
   A15        2.09440   0.34800   0.00000   0.10829   0.10823   2.20263
   A16        2.09440   0.03078   0.00000   0.01017   0.01020   2.10459
   A17        2.09440  -0.08165   0.00000  -0.02752  -0.02755   2.06685
   A18        2.09440   0.05087   0.00000   0.01735   0.01732   2.11172
   A19        2.09440  -0.02173   0.00000  -0.00677  -0.00677   2.08762
   A20        2.09440  -0.02112   0.00000  -0.00659  -0.00659   2.08781
   A21        2.09440   0.04285   0.00000   0.01336   0.01336   2.10776
   A22        2.09440   0.52150   0.00000   0.16262   0.16261   2.25701
   A23        2.09440  -0.27098   0.00000  -0.08450  -0.08450   2.00990
   A24        2.09440  -0.25052   0.00000  -0.07812  -0.07812   2.01628
   A25        2.09440   0.36924   0.00000   0.11514   0.11510   2.20950
   A26        2.09440  -0.19159   0.00000  -0.05974  -0.05977   2.03463
   A27        2.09440  -0.17765   0.00000  -0.05540  -0.05542   2.03897
   A28        1.91063   0.00448   0.00000   0.00149   0.00141   1.91204
   A29        1.91063   0.03801   0.00000   0.01343   0.01339   1.92402
   A30        1.91063  -0.02403   0.00000  -0.00867  -0.00868   1.90195
   A31        1.91063   0.02182   0.00000   0.00845   0.00835   1.91899
   A32        1.91063  -0.03581   0.00000  -0.01325  -0.01330   1.89733
   A33        1.91063  -0.00448   0.00000  -0.00145  -0.00143   1.90920
   A34        1.91063   0.00418   0.00000   0.00141   0.00141   1.91204
   A35        1.91063  -0.00058   0.00000  -0.00020  -0.00020   1.91044
   A36        1.91063   0.00413   0.00000   0.00140   0.00140   1.91204
   A37        1.91063  -0.00215   0.00000  -0.00074  -0.00074   1.90990
   A38        1.91063  -0.00423   0.00000  -0.00143  -0.00143   1.90920
   A39        1.91063  -0.00136   0.00000  -0.00045  -0.00045   1.91018
   A40        1.91063   0.04451   0.00000   0.01447   0.01440   1.92503
   A41        1.91063  -0.04000   0.00000  -0.01303  -0.01301   1.89763
   A42        1.91063  -0.03443   0.00000  -0.01125  -0.01116   1.89947
   A43        1.91063  -0.03968   0.00000  -0.01231  -0.01235   1.89828
   A44        1.91063  -0.00408   0.00000  -0.00056  -0.00050   1.91013
   A45        1.91063   0.07368   0.00000   0.02268   0.02274   1.93338
   A46        1.91063   0.00423   0.00000   0.00151   0.00150   1.91213
   A47        1.91063  -0.01591   0.00000  -0.00523  -0.00523   1.90541
   A48        1.91063   0.03093   0.00000   0.00973   0.00972   1.92035
   A49        1.91063   0.00182   0.00000   0.00040   0.00040   1.91104
   A50        1.91063  -0.00411   0.00000  -0.00074  -0.00077   1.90987
   A51        1.91063  -0.01695   0.00000  -0.00567  -0.00565   1.90498
   A52        1.91063   0.18513   0.00000   0.05773   0.05773   1.96836
    D1        0.00000   0.00514   0.00000   0.00202   0.00197   0.00197
    D2        3.14159   0.00025   0.00000   0.00009   0.00005  -3.14155
    D3        3.14159   0.01096   0.00000   0.00429   0.00431  -3.13728
    D4        0.00000   0.00607   0.00000   0.00237   0.00239   0.00239
    D5       -0.00000   0.00318   0.00000   0.00125   0.00136   0.00136
    D6        3.14159   0.02501   0.00000   0.00977   0.00984  -3.13176
    D7        3.14159  -0.00264   0.00000  -0.00103  -0.00098   3.14061
    D8       -0.00000   0.01919   0.00000   0.00750   0.00749   0.00749
    D9       -0.00000  -0.00333   0.00000  -0.00131  -0.00136  -0.00136
   D10        3.14159  -0.00477   0.00000  -0.00187  -0.00185   3.13974
   D11        3.14159   0.00156   0.00000   0.00061   0.00057  -3.14103
   D12        0.00000   0.00013   0.00000   0.00005   0.00007   0.00007
   D13       -0.00000   0.00251   0.00000   0.00099   0.00099   0.00099
   D14        3.14159   0.00240   0.00000   0.00094   0.00095  -3.14065
   D15        3.14159  -0.00238   0.00000  -0.00094  -0.00094   3.14065
   D16        0.00000  -0.00249   0.00000  -0.00098  -0.00098  -0.00098
   D17        0.00000  -0.00679   0.00000  -0.00266  -0.00261  -0.00261
   D18        3.14159  -0.00074   0.00000  -0.00030  -0.00018   3.14141
   D19        3.14159  -0.00536   0.00000  -0.00210  -0.00211   3.13948
   D20       -0.00000   0.00069   0.00000   0.00027   0.00032   0.00032
   D21       -0.00000   0.01511   0.00000   0.00592   0.00581   0.00581
   D22        3.14159  -0.00417   0.00000  -0.00165  -0.00124   3.14035
   D23        3.14159   0.00906   0.00000   0.00356   0.00338  -3.13821
   D24        0.00000  -0.01022   0.00000  -0.00402  -0.00368  -0.00368
   D25        0.00000  -0.01330   0.00000  -0.00522  -0.00517  -0.00517
   D26        3.14159  -0.03514   0.00000  -0.01374  -0.01386   3.12773
   D27        3.14159   0.00598   0.00000   0.00236   0.00272  -3.13887
   D28       -0.00000  -0.01586   0.00000  -0.00616  -0.00598  -0.00598
   D29        3.14159  -0.04958   0.00000  -0.01982  -0.01969   3.12191
   D30       -0.00000  -0.05588   0.00000  -0.02231  -0.02232  -0.02232
   D31        0.00000  -0.06887   0.00000  -0.02740  -0.02739  -0.02739
   D32        3.14159  -0.07516   0.00000  -0.02989  -0.03002   3.11157
   D33        0.00000  -0.10240   0.00000  -0.03985  -0.04003  -0.04003
   D34        3.14159  -0.06562   0.00000  -0.02536  -0.02533   3.11626
   D35        3.14159  -0.09611   0.00000  -0.03736  -0.03739   3.10420
   D36       -0.00000  -0.05932   0.00000  -0.02287  -0.02269  -0.02269
   D37       -0.52360   0.00195   0.00000   0.00076   0.00065  -0.52295
   D38        1.57080   0.00152   0.00000   0.00060   0.00049   1.57129
   D39       -2.61799   0.00203   0.00000   0.00079   0.00068  -2.61732
   D40        2.61799  -0.00435   0.00000  -0.00173  -0.00161   2.61638
   D41       -1.57080  -0.00477   0.00000  -0.00188  -0.00177  -1.57256
   D42        0.52360  -0.00426   0.00000  -0.00169  -0.00158   0.52202
   D43       -0.52360  -0.05552   0.00000  -0.02115  -0.02105  -0.54465
   D44        1.57080  -0.00278   0.00000  -0.00167  -0.00150   1.56930
   D45       -2.61799   0.00030   0.00000  -0.00053  -0.00044  -2.61843
   D46        2.61799  -0.09231   0.00000  -0.03565  -0.03579   2.58221
   D47       -1.57080  -0.03956   0.00000  -0.01616  -0.01623  -1.58703
   D48        0.52360  -0.03648   0.00000  -0.01502  -0.01518   0.50842
   D49       -1.57080   0.01136   0.00000   0.00447   0.00510  -1.56570
   D50        1.57080   0.04814   0.00000   0.01896   0.01833   1.58913
   D51        1.04720  -0.00940   0.00000  -0.00324  -0.00329   1.04391
   D52       -1.04720  -0.00448   0.00000  -0.00145  -0.00150  -1.04870
   D53        3.14159   0.00709   0.00000   0.00274   0.00271  -3.13888
   D54       -3.14159  -0.00368   0.00000  -0.00103  -0.00100   3.14059
   D55        1.04720   0.00125   0.00000   0.00075   0.00079   1.04799
   D56       -1.04720   0.01281   0.00000   0.00494   0.00500  -1.04220
   D57       -1.04720   0.01214   0.00000   0.00463   0.00463  -1.04257
   D58        3.14159   0.01707   0.00000   0.00642   0.00642  -3.13518
   D59        1.04720   0.02863   0.00000   0.01061   0.01062   1.05782
   D60        3.14159   0.01297   0.00000   0.00427   0.00428  -3.13731
   D61        1.04720  -0.01796   0.00000  -0.00623  -0.00619   1.04101
   D62       -1.04720  -0.01199   0.00000  -0.00470  -0.00474  -1.05194
         Item               Value     Threshold  Converged?
 Maximum Force            0.521502     0.000450     NO 
 RMS     Force            0.083128     0.000300     NO 
 Maximum Displacement     1.173594     0.001800     NO 
 RMS     Displacement     0.329407     0.001200     NO 
 Predicted change in Energy=-3.040221D-01
 GradGradGradGradGradGradGradGradGradGradGradGradGradGradGradGradGradGrad

                          Input orientation:                          
 ---------------------------------------------------------------------
 Center     Atomic      Atomic             Coordinates (Angstroms)
 Number     Number       Type             X           Y           Z
 ---------------------------------------------------------------------
      1          6           0       -0.210567   -0.038050    0.267276
      2          6           0       -0.028761   -0.037879    1.651243
      3          6           0        1.261561   -0.017186    2.181156
      4          6           0        2.367268    0.001648    1.324483
      5          6           0        2.206183   -0.002957   -0.071771
      6          6           0        0.896916   -0.019921   -0.591195
      7          1           0       -1.202426   -0.049946   -0.139883
      8          1           0        1.404674   -0.015273    3.243767
      9          1           0        3.354726    0.017644    1.741228
     10          1           0        0.724698   -0.011414   -1.635689
     11          7           0       -1.192724   -0.056980    2.547375
     12          8           0       -2.298179   -0.073725    2.082648
     13          8           0       -1.026518   -0.055694    3.735069
     14          6           0        3.526174    0.021513   -0.901860
     15          6           0        3.697626    0.002440   -2.262974
     16          6           0        2.592307   -0.098564   -3.323139
     17          1           0        1.780951   -0.666400   -2.937968
     18          1           0        2.254920    0.878791   -3.600656
     19          1           0        2.983215   -0.599614   -4.188260
     20          6           0        4.819471    0.078332   -0.071822
     21          1           0        4.632688    0.596094    0.848821
[...]
 0036603,-0.00008419,-0.00012939,0.00004801,0.00019710,-0.00005531,-0.0
 0105405,0.00151130,-0.00027897,-0.00030892,0.00000830,0.00064554,0.000
 87877,0.00003718,-0.00036654,0.00093077,-0.00108385,-0.00002944,-0.100
 64619,0.00088684,-0.11210916,0.10369807,0.00148527,0.07345900,0.000152
 06,-0.00021140,0.00011211,-0.00010338,0.00001773,0.00007084,0.00005632
 ,-0.00010563,0.00012229,-0.00012865,0.00006696,0.00010681,0.00031184,-
 0.00043203,0.00002433,0.00001991,0.00063403,-0.00063603,0.00005794,0.0
 0002262,-0.00004908,-0.00001230,0.00000896,-0.00001320,-0.00000292,-0.
 00004670,0.00001689,0.00067565,0.00018081,-0.00021033,0.00034679,0.000
 13447,-0.00034299,-0.00015014,-0.00005277,0.00013065,-0.00016085,-0.00
 015301,0.00024603,0.00059428,-0.00199938,-0.00176510,-0.00219924,-0.00
 217298,0.00341228,0.00106455,0.00073231,-0.00069368,0.00029344,-0.0000
 7725,0.00017669,0.00050066,0.00072465,0.00070027,-0.00019017,-0.000342
 75,-0.00000654,-0.00112241,0.00083843,-0.00023611,-0.00049244,0.000388
 87,-0.00065875,0.00027779,-0.00014708,-0.00007256,0.00002095,-0.000599
 45,0.00036905,-0.31543743,0.23307091,0.16390114,-0.01151738,0.02717137
 ,0.01897350,0.31231783,-0.00006750,0.00019035,-0.00023751,-0.00040444,
 -0.00003763,0.00024474,0.00023148,-0.00004917,0.00001706,-0.00064924,0
 .00003252,0.00048366,0.00118679,-0.00024279,-0.00020268,-0.00029315,-0
 .00032791,0.00068555,-0.00005880,-0.00006695,0.00005330,-0.00004813,-0
 .00000856,-0.00000746,0.00002196,0.00006107,-0.00013270,-0.00026559,-0
 .00026548,-0.00004366,0.00075296,-0.00003739,-0.00042406,-0.00040888,0
 .00014279,0.00012084,-0.00024093,-0.00003723,0.00019835,-0.00197180,-0
 .00150356,0.00045162,0.01267692,0.00212971,-0.00773951,-0.00079701,-0.
 00059206,0.00126153,-0.00050621,-0.00003821,-0.00023527,-0.00001305,-0
 .00011736,-0.00015471,0.00030617,0.00033481,0.00015572,-0.00036725,-0.
 00060117,0.00007697,0.00027028,-0.00005644,0.00095278,0.00015193,0.000
 20194,0.00017766,-0.00027413,-0.00018329,-0.00030502,0.23640347,-0.318
 49409,-0.16856732,-0.00646937,0.00986116,-0.00491567,-0.25704083,0.340
 39386,-0.00009379,0.00004915,-0.00002064,0.00012678,-0.00000984,-0.000
 11505,-0.00004788,0.00003510,0.00000500,0.00006678,0.00004838,-0.00012
 686,-0.00020637,0.00049529,0.00039844,0.00002907,-0.00027225,0.0003322
 6,-0.00003536,-0.00000772,-0.00000755,-0.00000566,-0.00001557,0.000008
 30,-0.00000495,-0.00009051,0.00001512,-0.00044304,-0.00011124,-0.00007
 369,-0.00044337,-0.00006182,0.00027505,0.00023900,-0.00000762,-0.00008
 544,0.00017822,0.00008982,-0.00016281,-0.00207073,0.00103887,0.0005579
 9,0.00251976,0.00263111,-0.00373415,-0.00072420,-0.00029237,0.00040800
 ,-0.00000597,-0.00013853,0.00004054,0.00060437,-0.00021761,-0.00014403
 ,0.00031195,0.00027818,0.00005257,0.00062890,0.00020702,-0.00221047,0.
 00032038,0.00042872,0.00169973,0.00021148,0.00095732,0.00017724,0.0003
 3785,-0.00052539,0.00011000,0.16612651,-0.17135275,-0.21574214,-0.0065
 9318,0.00024931,0.02195950,-0.18019704,0.18982183,0.18765196,-0.000134
 80,0.00000531,-0.00007088,0.00000935,0.00003284,-0.00000661,-0.0000005
 0,0.00003844,-0.00008132,-0.00000561,-0.00007663,0.00004033,0.00008979
 ,0.00032676,0.00007261,-0.00014667,-0.00031614,0.00006732,-0.00003370,
 0.00000375,0.00008260,0.00000735,-0.00000561,0.00001953,0.00001192,0.0
 0004722,-0.00000131,0.00009413,0.00016852,0.00023339,-0.00015638,-0.00
 014450,0.00031516,0.00003321,0.00005897,-0.00013606,0.00008960,0.00013
 194,-0.00021788,-0.00202449,0.00001297,0.00020372,0.00734412,0.0004620
 4,0.00270533,0.00151357,-0.00122425,0.00040138,-0.00068096,0.00071200,
 -0.00081995,-0.00296939,0.00016230,0.00110303,-0.00001941,-0.00098698,
 0.00026326,0.00020539,-0.00039825,0.00003873,-0.00013966,-0.00009492,-
 0.00026304,-0.00005206,-0.00009178,-0.00001962,-0.00020586,-0.00005895
 ,-0.00010468,-0.02409624,0.00529157,-0.02700591,-0.01837568,0.00134536
 ,-0.01918133,-0.00735843,0.00874893,0.02042119,0.61682794,-0.00013304,
 -0.00007996,0.00003595,0.00006182,0.00006614,-0.00008841,0.00000696,-0
 .00000248,-0.00004778,0.00008888,-0.00005641,-0.00007134,-0.00025995,0
 .00072085,0.00009237,0.00003135,-0.00010224,-0.00002833,-0.00000558,0.
 00003472,0.00000308,0.00000286,0.00000595,0.00001812,0.00000847,-0.000
 00410,0.00005671,-0.00008437,0.00013624,0.00005926,-0.00034402,0.00007
 690,0.00017612,0.00020044,-0.00008195,-0.00006573,0.00012424,-0.000012
 98,-0.00008783,-0.00124985,-0.00085567,0.00007923,0.00302083,-0.003571
 81,0.00455266,0.00041624,0.00056620,-0.00002634,-0.00004029,0.00000495
 ,-0.00029714,-0.00078614,0.00006806,0.00017402,-0.00034031,-0.00079679
 ,0.00011030,-0.00014954,-0.00026699,-0.00014206,0.00004688,-0.00000032
 ,0.00011252,0.00002160,0.00011502,0.00000896,0.00012209,-0.00006951,0.
 00004174,0.00305354,-0.02096113,0.00906501,-0.00228557,0.00266873,-0.0
 0254890,0.00819417,-0.00854080,-0.02218449,-0.00363335,0.62897067,0.00
 002683,-0.00000654,-0.00026548,-0.00069138,-0.00002848,0.00043497,0.00
 034295,-0.00013790,-0.00000149,-0.00078947,-0.00005095,0.00048857,0.00
 132968,0.00053652,-0.00056041,-0.00071023,-0.00008910,0.00033575,0.000
 01677,-0.00002453,0.00005379,-0.00003238,0.00002595,-0.00001236,0.0000
 6825,0.00014132,-0.00009748,0.00037225,0.00000771,0.00007682,0.0015487
 8,0.00017933,-0.00095318,-0.00080203,0.00010319,0.00028742,-0.00055805
 ,-0.00025856,0.00053329,-0.00254155,-0.00078131,0.00058443,0.01113630,
 0.00062760,-0.00369114,-0.00045515,-0.00027019,0.00113701,-0.00064815,
 -0.00006378,-0.00045313,-0.00023911,0.00034205,0.00050654,0.00011407,-
 0.00031259,0.00020982,-0.00006062,-0.00034868,0.00030639,0.00018413,0.
 00013001,-0.00054618,-0.00007270,-0.00019015,0.00032172,-0.00034921,0.
 00052647,-0.00059546,-0.01976703,0.02296154,-0.18903376,0.02271262,-0.
 00317258,0.01651102,-0.00956616,0.00764361,0.01489846,-0.01697019,0.00
 787405,0.55614184,0.00003076,-0.00001854,-0.00000792,-0.00007648,-0.00
 000467,0.00004571,0.00003927,-0.00002929,0.00002038,-0.00008514,0.0000
 0895,0.00003849,0.00011436,0.00001564,-0.00007254,-0.00004774,0.000070
 82,-0.00001171,0.00001260,0.00000177,-0.00001482,-0.00000580,0.0000060
 4,-0.00000457,0.00000569,0.00000557,-0.00000376,0.00004285,-0.00001984
 ,-0.00003189,0.00019220,0.00007244,-0.00018033,-0.00008386,-0.00001523
 ,0.00006384,-0.00007928,-0.00007071,0.00011488,0.00011951,-0.00001589,
 -0.00010440,-0.00022937,-0.00004721,-0.00054006,-0.00037936,0.00023566
 ,0.00004760,0.00008046,-0.00014457,0.00012180,0.00055168,0.00001185,-0
 .00017219,0.00000215,0.00010864,-0.00005100,-0.00005804,0.00009298,0.0
 0012572,0.00004944,-0.00001058,-0.00008162,0.00001488,-0.00003876,0.00
 003040,-0.00001106,0.00007145,-0.00002772,-0.00789402,0.01130285,0.001
 02463,0.00614669,-0.00227417,0.00039491,0.00113606,-0.00044081,0.00340
 011,-0.15734066,0.09649288,0.08145921,0.21312329,-0.00000159,0.0000357
 0,0.00000588,0.00007214,-0.00001031,-0.00003582,-0.00004223,0.00002856
 ,-0.00000508,0.00007195,0.00001236,-0.00003375,-0.00007568,-0.00013746
 ,0.00007974,0.00006471,-0.00003362,0.00003469,-0.00001070,-0.00000924,
 0.00000515,0.00000384,-0.00000790,-0.00000076,-0.00001005,-0.00001509,
 -0.00000641,-0.00006002,-0.00002456,-0.00000512,-0.00014288,-0.0000749
 3,0.00013124,0.00006005,0.00002361,-0.00004263,0.00005943,0.00006532,-
 0.00008589,0.00014771,0.00002625,0.00013818,-0.00059599,0.00065695,-0.
 00007155,0.00019321,-0.00029270,-0.00007984,-0.00000386,0.00011081,0.0
 0002914,-0.00014523,-0.00005360,-0.00000064,0.00014469,0.00017848,-0.0
 0004218,0.00001819,-0.00000377,-0.00012182,-0.00003550,0.00003074,0.00
 016455,0.00000773,0.00005402,-0.00003633,0.00002296,-0.00009383,0.0000
 3424,0.01269221,-0.01335301,-0.00296436,-0.00415812,0.00263557,0.00052
 437,-0.00006517,0.00053499,-0.00495678,0.09514264,-0.19517782,-0.09895
 033,-0.15352164,0.26889654,-0.00002893,0.00002718,0.00006226,0.0002206
 1,0.00000577,-0.00013954,-0.00010909,0.00005689,-0.00001447,0.00024986
 ,0.00001454,-0.00014769,-0.00040012,-0.00005681,0.00020115,0.00021412,
 -0.00003265,-0.00001911,-0.00001659,0.00000014,-0.00000693,0.00001008,
 -0.00001237,0.00000480,-0.00002295,-0.00004751,0.00002424,-0.00017010,
 -0.00001425,-0.00002325,-0.00052293,-0.00009596,0.00035186,0.00026308,
 -0.00001232,-0.00011068,0.00019717,0.00011395,-0.00020728,0.00048677,-
 0.00005977,0.00006726,-0.00285462,-0.00077618,0.00117630,0.00023665,-0
 .00004437,-0.00029405,0.00013828,0.00006764,0.00008687,-0.00006235,-0.
 00012621,-0.00010760,0.00001464,0.00013696,-0.00005559,-0.00000200,-0.
 00002666,-0.00028156,-0.00005089,0.00005392,0.00034105,0.00002690,0.00
 014736,-0.00008760,0.00013674,-0.00020667,0.00019562,0.02588139,-0.035
 06904,-0.00739538,-0.00634321,0.00398995,-0.00092997,0.00279396,-0.002
 63609,-0.01467748,0.08424352,-0.10401587,-0.17258242,-0.11079751,0.131
 50244,0.15971995,0.00002369,0.00000024,-0.00001016,-0.00004669,-0.0000
 0925,0.00003024,0.00002098,-0.00001305,0.00001239,-0.00004778,0.000012
 74,0.00002456,0.00007542,-0.00000132,-0.00003248,-0.00002383,0.0000437
 7,0.00002461,0.00000535,-0.00000398,-0.00001098,-0.00000364,0.00000132
 ,-0.00000505,0.00000139,-0.00000163,-0.00000847,0.00000335,-0.00003322
 ,-0.00003446,0.00012520,0.00003099,-0.00011349,-0.00005697,0.00000028,
 0.00004165,-0.00004955,-0.00003510,0.00006977,0.00009706,-0.00002593,0
 .00003184,-0.00034253,-0.00008390,-0.00043892,-0.00030579,0.00016370,0
 .00003697,0.00009166,-0.00011204,0.00013164,0.00046757,-0.00009283,-0.
 00019352,0.00002266,0.00017922,-0.00004672,-0.00005804,0.00005063,0.00
 003279,0.00003100,0.00001639,0.00002939,0.00001942,0.00000624,0.000020
 67,0.00002224,-0.00000080,-0.00000813,0.00177897,-0.00358738,-0.000196
 78,0.00355344,0.00039540,0.00177581,0.00068036,0.00019603,-0.00099475,
 -0.09224661,-0.05554469,0.02243425,0.01404904,0.02545579,-0.00439082,0
 .10850383,0.00003437,0.00002849,-0.00013133,-0.00026587,-0.00003548,0.
 00017840,0.00011179,-0.00003596,0.00000528,-0.00028398,0.00001289,0.00
 016678,0.00051857,0.00026900,-0.00017756,-0.00027083,-0.00003918,0.000
 25039,-0.00000276,-0.00002988,0.00001358,-0.00001477,0.00000257,-0.000
 01243,0.00001816,0.00003381,-0.00005373,0.00008673,-0.00008094,-0.0000
 0895,0.00062036,0.00002801,-0.00038108,-0.00032314,0.00007012,0.000122
 14,-0.00021774,-0.00007555,0.00020814,-0.00093710,-0.00022531,0.000129
 89,0.00353713,0.00020925,-0.00114256,-0.00054561,-0.00020929,0.0003477
 8,-0.00006425,-0.00010342,0.00009279,0.00047813,-0.00011846,-0.0001577
 1,0.00014168,0.00028818,-0.00004908,-0.00005547,0.00001617,0.00014454,
 0.00011123,0.00000680,-0.00000885,0.00008000,-0.00002114,0.00009833,-0
 .00006231,-0.00002447,-0.00012872,-0.00868712,-0.02537721,-0.00177140,
 0.00615922,0.00341193,0.00297387,-0.00251806,0.00732925,0.00447931,-0.
 05651682,-0.30367459,0.09478865,0.01274624,-0.07824919,-0.00290357,0.0
 9322544,0.42519024,0.00000254,-0.00000509,0.00013796,0.00029854,0.0000
 1823,-0.00018669,-0.00014022,0.00004716,0.00000738,0.00032360,0.000009
 44,-0.00018560,-0.00054431,-0.00044838,0.00020332,0.00031230,0.0000781
 2,-0.00024695,0.00000103,0.00001866,-0.00002306,0.00001533,-0.00000748
 ,0.00000701,-0.00002665,-0.00004915,0.00004475,-0.00011028,0.00002337,
 -0.00002906,-0.00064676,-0.00006295,0.00039769,0.00033361,-0.00005376,
 -0.00012130,0.00022803,0.00009825,-0.00021948,0.00142568,0.00062012,-0
 .00014094,-0.00521263,0.00025227,0.00028024,0.00020757,0.00017708,-0.0
 0042507,0.00018995,0.00003245,0.00009056,-0.00004441,-0.00004843,-0.00
 001619,-0.00007871,-0.00001112,-0.00002880,0.00008345,0.00010643,-0.00
 013469,-0.00011327,-0.00002562,0.00008534,-0.00005195,0.00002886,-0.00
 012027,0.00010253,-0.00005813,0.00019690,0.00983191,0.03181178,0.00229
 824,-0.00564913,-0.00275373,-0.00332323,0.00066806,-0.00405786,-0.0024
 3141,0.02564149,0.10244947,-0.12746380,-0.00231309,-0.02232640,0.02027
 255,-0.03283457,-0.10810777,0.10259948,0.00007982,-0.00000033,0.000038
 85,0.00003545,-0.00002365,-0.00002015,-0.00002293,-0.00001542,0.000054
 29,0.00004784,0.00006147,-0.00005488,-0.00007642,-0.00011129,0.0000489
 4,0.00011017,0.00017456,-0.00003518,0.00001614,-0.00000386,-0.00005159
 ,-0.00000500,-0.00000024,-0.00001161,-0.00001412,-0.00004906,0.0000049
 5,-0.00008482,-0.00011839,-0.00014373,-0.00000724,0.00006838,-0.000125
 12,0.00003351,-0.00003749,0.00006249,-0.00001460,-0.00005818,0.0000949
 6,0.00100613,0.00012265,-0.00019010,-0.00454042,0.00013379,-0.00037804
 ,-0.00163018,0.00075485,-0.00013485,0.00063760,-0.00063747,0.00070825,
 0.00184319,-0.00068371,-0.00035966,0.00003266,0.00058648,-0.00027269,-
 0.00021110,0.00033609,0.00011251,0.00006346,0.00003264,0.00025101,0.00
 014961,0.00005017,-0.00004703,0.00007228,-0.00030816,0.00021432,-0.035
 64329,-0.00956872,0.00653767,-0.00321250,0.00094879,-0.01021141,0.0089
 5372,-0.00206990,-0.00459344,-0.31254643,-0.03715971,-0.07203468,-0.07
 020577,0.02396729,0.00870722,-0.03688779,-0.04347834,0.00165800,0.4429
 7353,0.00003809,0.00002634,-0.00002745,-0.00003119,-0.00002258,0.00003
 251,0.00000372,-0.00000089,0.00001309,-0.00003497,0.00002508,0.0000115
 6,0.00008900,-0.00005141,-0.00004142,-0.00002065,0.00001558,0.00006286
 ,0.00000025,-0.00001142,-0.00000257,-0.00000303,-0.00000071,-0.0000054
 9,-0.00000228,-0.00000306,-0.00001417,-0.00000307,-0.00005739,-0.00001
 997,0.00011526,-0.00000500,-0.00007807,-0.00005981,0.00001806,0.000028
 11,-0.00004144,-0.00000943,0.00004268,0.00027443,0.00004424,-0.0000114
 5,-0.00083959,0.00047150,-0.00128667,-0.00095075,-0.00012974,0.0002921
 7,0.00021098,-0.00017968,0.00033318,0.00034008,-0.00049803,0.00013954,
 0.00008700,0.00041878,-0.00022837,-0.00003226,0.00009209,0.00006328,0.
 00002553,0.00000781,0.00004879,0.00003751,0.00000199,0.00000233,-0.000
 01750,-0.00005161,0.00000640,-0.00377490,0.00046974,0.00134826,-0.0002
 7923,0.00061355,-0.00081368,-0.00010217,0.00120601,0.00076743,-0.03554
 760,-0.08296553,-0.01102296,0.03740709,0.00843092,0.00179829,-0.060596
 68,-0.02523226,-0.00509478,0.06036785,0.09452182,-0.00000610,-0.000000
 46,0.00006204,0.00016465,0.00000650,-0.00010803,-0.00007602,0.00002775
 ,0.00000886,0.00017453,0.00001842,-0.00011166,-0.00029136,-0.00008071,
 0.00018545,0.00016965,0.00003668,-0.00007376,-0.00000342,0.00000614,-0
 .00002214,0.00000453,-0.00000687,0.00000181,-0.00001811,-0.00004436,0.
 00002380,-0.00010985,-0.00001190,-0.00003763,-0.00038598,-0.00002447,0
 .00020682,0.00020791,-0.00003419,-0.00005834,0.00013733,0.00004960,-0.
 00011109,0.00046147,0.00014960,-0.00013200,-0.00243492,-0.00044160,0.0
 0158264,0.00093319,0.00017336,-0.00045519,0.00005478,0.00016950,0.0000
 5474,0.00060363,0.00059259,-0.00083038,-0.00006214,0.00021260,-0.00004
 561,-0.00006676,0.00013328,-0.00006175,-0.00004715,0.00000217,0.000182
 49,0.00007520,0.00005417,-0.00009115,0.00005578,-0.00027016,0.00021642
 ,-0.03588653,-0.00851582,0.00283208,-0.00729406,0.00118665,-0.01050378
 ,0.00425955,-0.00052843,-0.00264724,-0.07892704,-0.01204296,-0.1068940
 8,0.02720051,-0.00196793,0.01645752,0.01403836,0.00419181,0.01734460,0
 .07229903,0.01322007,0.08528843,0.00009350,0.00010349,-0.00076029,-0.0
 0124156,-0.00018560,0.00078873,0.00081416,-0.00052361,0.00038846,-0.00
 284638,0.00063835,0.00168229,0.00683012,-0.00177023,0.00034755,-0.0013
 1886,-0.00038219,0.00112355,-0.00003695,-0.00009289,0.00007459,-0.0002
 1409,0.00000429,-0.00001775,0.00008132,0.00000285,-0.00018114,0.000173
 45,-0.00032167,0.00003361,0.00249311,0.00030876,-0.00167215,-0.0012276
 5,0.00020126,0.00050579,-0.00086282,-0.00043503,0.00094269,-0.02135851
 ,-0.00414549,0.02333720,-0.16928158,-0.00876864,0.06995427,-0.04174688
 ,-0.01435686,0.02606556,-0.00563771,-0.00141275,-0.00623820,0.00198080
 ,0.00133678,0.00113171,0.00225766,0.00074237,0.00120226,-0.00545144,0.
 00371737,-0.00417856,0.00244438,0.00039246,0.00092161,0.00139724,-0.00
 036225,-0.00053911,0.00263907,-0.00101970,-0.00185050,-0.07831223,-0.0
 2357330,0.02437771,-0.01816830,-0.03690677,0.00342118,0.01141559,0.011
 44013,0.00093737,-0.00769283,-0.00987683,-0.01545800,0.00078565,0.0007
 4411,0.00195111,0.00049659,-0.00362488,0.00644235,0.00904748,0.0033403
 2,0.00476934,0.31244770,-0.00022531,-0.00002637,-0.00088647,-0.0011338
 2,-0.00007567,0.00068869,0.00030317,-0.00000760,-0.00062929,0.00024579
 ,-0.00024772,0.00010869,0.00125923,0.01170047,-0.00153923,-0.00222357,
 -0.00090919,0.00161800,-0.00008057,-0.00009325,0.00011107,0.00001897,0
 .00001028,-0.00004229,0.00012152,0.00009140,-0.00001677,-0.00011274,-0
 .00014922,0.00029354,0.00190796,0.00021068,-0.00118338,-0.00091830,0.0
 0019720,0.00034886,-0.00058717,-0.00028132,0.00063818,-0.00918877,0.00
 476648,0.01183592,-0.00269587,-0.05722415,-0.01171311,-0.01897674,-0.0
 0158092,0.01091681,-0.00478240,0.00101297,-0.00267002,-0.00108969,0.00
 007503,-0.00073195,0.00176825,0.00128499,0.00227902,0.00014477,-0.0062
 6373,-0.00135186,-0.00060482,0.00005216,0.00070496,0.00131834,0.000655
 69,0.00055179,0.00029280,-0.00122519,-0.00043339,-0.03183566,-0.188166
 11,0.01469624,-0.00307965,-0.00413725,0.00307431,-0.00611960,-0.031218
 35,-0.00133235,-0.01359580,-0.01621334,-0.02017939,-0.00199898,0.00581
 621,0.00822125,0.00036364,-0.00336438,0.00733896,0.00671890,0.00285523
 ,0.00373899,0.08478615,0.28245494,0.00027035,-0.00009862,0.00046083,0.
 00091125,-0.00000283,-0.00054507,-0.00056615,0.00079181,-0.00010538,0.
 00288226,-0.00022509,-0.00146775,-0.00603093,0.00078305,-0.00397200,0.
 00094417,0.00073839,-0.00054823,0.00005777,0.00004915,-0.00011521,0.00
 017996,-0.00003264,-0.00004875,-0.00015212,-0.00021289,0.00001138,-0.0
 0015427,-0.00013059,-0.00014335,-0.00183117,-0.00020412,0.00109196,0.0
 0094964,-0.00016372,-0.00032097,0.00064293,0.00026846,-0.00060154,0.04
 732031,0.00544959,-0.03349540,0.06600383,-0.00643013,-0.10388614,-0.00
 574871,-0.00205945,0.00728357,-0.00108906,-0.00066871,0.00013135,0.001
 51267,-0.00007292,0.00040081,0.00007331,0.00069249,0.00101644,0.001209
 21,0.00297077,-0.00014037,-0.00030267,-0.00039597,-0.00029774,0.000957
 86,-0.00082371,-0.00110785,0.00107925,-0.00002645,-0.00390007,0.019270
 62,0.00822285,-0.07146398,0.00601362,0.00509313,0.01475934,-0.00163689
 ,-0.01215726,0.01358879,0.00795325,0.01673760,0.01032252,0.00032693,-0
 .00091596,-0.00188082,0.00058435,0.00684308,-0.00886947,-0.00212835,0.
 00043649,-0.00226387,-0.13950323,-0.02445580,0.18610697\\-0.00000099,0
 .00000071,0.00000094,0.00000101,0.00000128,-0.00000074,-0.00000138,0.0
 0000147,0.00000108,0.00000286,-0.00000205,-0.00000063,-0.00000575,0.00
 000309,0.00000562,0.00000304,0.00000211,-0.00000221,0.00000073,0.00000
 110,0.00000021,-0.00000039,0.00000195,0.00000035,0.00000115,0.00000148
 ,-0.00000066,0.00000135,-0.00000069,-0.00000227,0.00000330,0.00000486,
 0.00000041,-0.00000149,0.00000020,0.00000172,-0.00000344,0.00000221,0.
 00000098,-0.00000291,-0.00000039,-0.00000677,0.00000814,0.00000086,0.0
 0000246,-0.00000320,-0.00000356,0.,0.00000061,0.00000073,0.00000030,0.
 00000189,-0.00000035,0.00000086,-0.00000245,-0.00000069,0.00000131,0.0
 0000512,-0.00000300,0.00000277,-0.00000031,-0.00000073,-0.00000090,-0.
 00000208,0.00000030,-0.00000035,-0.00000243,0.00000076,0.00000192,-0.0
 0000586,-0.00001683,-0.00001191,0.00000378,0.00000106,0.00000125,0.000
 00094,0.00000316,0.00000443,-0.00000473,-0.00000789,0.00000638,0.00000
 171,-0.00000310,-0.00000148,0.00000137,0.00000116,-0.00000128,0.000001
 75,-0.00000054,-0.00000279,-0.00000135,0.00001133,-0.00000100\\\@
 The archive entry for this job was punched.


 THE 2ND LAW OF THERMODYNAMICS HAS THE SAME
 DEGREE OF TRUTH AS THE STATEMENT THAT IF YOU THROW
 A TUMBLERFULL OF WATER INTO THE SEA, YOU CANNOT GET
 THE SAME TUMBLERFULL OF WATER OUT AGAIN.
          - J.C. MAXWELL, LETTER TO LORD RAYLEIGH, DECEMBER 6,1870
 Job cpu time:       0 days  1 hours 52 minutes 33.2 seconds.
 Elapsed time:       0 days  0 hours  7 minutes  5.3 seconds.
 File lengths (MBytes):  RWF=    480 Int=      0 D2E=      0 Chk=     12 Scr=      1
 Normal termination of Gaussian 16 at Fri Dec 31 10:44:40 2021.
