 Entering Gaussian System, Link 0=/software/g16/g16
 Input=E-isomer.com
 Output=E-isomer.log
 Initial command:
 /software/g16/l1.exe "/scratch/Gau-1070078.inp" -scrdir="/scratch/"
 Default CPUs for threads: 0-15
 Default is to use a total of  16 processors:
                               16 via shared-memory
                                1 via Linda
 Entering Link 1 = /software/g16/l1.exe PID=   1070079.
  
 Copyright (c) 1988-2019, Gaussian, Inc.  All Rights Reserved.
  
 This is part of the Gaussian(R) 16 program.  It is based on
 the Gaussian(R) 09 system (copyright 2009, Gaussian, Inc.),
 the Gaussian(R) 03 system (copyright 2003, Gaussian, Inc.),
 the Gaussian(R) 98 system (copyright 1998, Gaussian, Inc.),
 the Gaussian(R) 94 system (copyright 1995, Gaussian, Inc.),
 the Gaussian 92(TM) system (copyright 1992, Gaussian, Inc.),
 the Gaussian 90(TM) system (copyright 1990, Gaussian, Inc.),
 the Gaussian 88(TM) system (copyright 1988, Gaussian, Inc.),
 the Gaussian 86(TM) system (copyright 1986, Carnegie Mellon
 University), and the Gaussian 82(TM) system (copyright 1983,
 Carnegie Mellon University). Gaussian is a federally registered
 trademark of Gaussian, Inc.
  
 This software contains proprietary and confidential information,
 including trade secrets, belonging to Gaussian, Inc.
  
 This software is provided under written license and may be
 used, copied, transmitted, or stored only in accord with that
 written license.
  
 The following legend is applicable only to US Government
 contracts under FAR:
  
                    RESTRICTED RIGHTS LEGEND
  
 Use, reproduction and disclosure by the US Government is
 subject to restrictions as set forth in subparagraphs (a)
 and (c) of the Commercial Computer Software - Restricted
 Rights clause in FAR 52.227-19.
  
 Gaussian, Inc.
 340 Quinnipiac St., Bldg. 40, Wallingford CT 06492
  
  
 ---------------------------------------------------------------
 Warning -- This program may not be used in any manner that
 competes with the business of Gaussian, Inc. or will provide
 assistance to any competitor of Gaussian, Inc.  The licensee
 of this program is prohibited from giving any competitor of
 Gaussian, Inc. access to this program.  By using this program,
 the user acknowledges that Gaussian, Inc. is engaged in the
 business of creating and licensing software in the field of
 computational chemistry and represents and warrants to the
 licensee that it is not a competitor of Gaussian, Inc. and that
 it will not use this program in any manner prohibited above.
 ---------------------------------------------------------------
  

 Cite this work as:
 Gaussian 16, Revision C.01,
 M. J. Frisch, G. W. Trucks, H. B. Schlegel, G. E. Scuseria, 
 M. A. Robb, J. R. Cheeseman, G. Scalmani, V. Barone, 
 G. A. Petersson, H. Nakatsuji, X. Li, M. Caricato, A. V. Marenich, 
 J. Bloino, B. G. Janesko, R. Gomperts, B. Mennucci, H. P. Hratchian, 
 J. V. Ortiz, A. F. Izmaylov, J. L. Sonnenberg, D. Williams-Young, 
 F. Ding, F. Lipparini, F. Egidi, J. Goings, B. Peng, A. Petrone, 
 T. Henderson, D. Ranasinghe, V. G. Zakrzewski, J. Gao, N. Rega, 
 G. Zheng, W. Liang, M. Hada, M. Ehara, K. Toyota, R. Fukuda, 
 J. Hasegawa, M. Ishida, T. Nakajima, Y. Honda, O. Kitao, H. Nakai, 
 T. Vreven, K. Throssell, J. A. Montgomery, Jr., J. E. Peralta, 
 F. Ogliaro, M. J. Bearpark, J. J. Heyd, E. N. Brothers, K. N. Kudin, 
 V. N. Staroverov, T. A. Keith, R. Kobayashi, J. Normand, 
 K. Raghavachari, A. P. Rendell, J. C. Burant, S. S. Iyengar, 
 J. Tomasi, M. Cossi, J. M. Millam, M. Klene, C. Adamo, R. Cammi, 
 J. W. Ochterski, R. L. Martin, K. Morokuma, O. Farkas, 
 J. B. Foresman, and D. J. Fox, Gaussian, Inc., Wallingford CT, 2019.
 
 ******************************************
 Gaussian 16:  ES64L-G16RevC.01  3-Jul-2019
                31-Dec-2021 
 ******************************************
 SetSPE:  set environment variable "MP_BIND" = "yes"
 SetSPE:  set environment variable "MP_BLIST" = "0,1,2,3,4,5,6,7,8,9,10,11,12,13,14,15"
 ------------------------------------------------------
 #N M062X/gen OPT FREQ=NoRaman Integral(Grid=UltraFine)
 ------------------------------------------------------
 1/18=20,19=15,26=4,38=1/1,3;
 2/9=110,12=2,17=6,18=5,40=1/2;
 3/5=7,11=2,25=1,30=1,71=1,74=-55,75=-5/1,2,3;
 4//1;
 5/5=2,38=5/2;
 6/7=2,8=2,9=2,10=2,28=1/1;
 7//1,2,3,16;
 1/18=20,19=15,26=4/3(2);
 2/9=110/2;
 99//99;
 2/9=110/2;
 3/5=7,6=1,11=2,25=1,30=1,71=1,74=-55,75=-5,82=7/1,2,3;
 4/5=5,16=3,69=1/1;
 5/5=2,38=5/2;
 7//1,2,3,16;
 1/18=20,19=15,26=4/3(-5);
 2/9=110/2;
 6/7=2,8=2,9=2,10=2,19=2,28=1/1;
 99/9=1/99;
 ---------------------------------------
 E-isomer - CH: def2svp - NOSF: def2tzvp
 ---------------------------------------
 Symbolic Z-matrix:
 Charge =  0 Multiplicity = 1
 C
 C                    1    B1
 C                    2    B2       1    A1
 C                    3    B3       2    A2       1    D1       0
 C                    4    B4       3    A3       2    D2       0
 C                    1    B5       2    A4       3    D3       0
 H                    1    B6       2    A5       3    D4       0
 H                    3    B7       2    A6       1    D5       0
 H                    4    B8       3    A7       2    D6       0
 H                    6    B9       1    A8       2    D7       0
 N                    2    B10      1    A9       6    D8       0
 O                    11   B11      2    A10      1    D9       0
 O                    11   B12      2    A11      1    D10      0
 C                    5    B13      4    A12      3    D11      0
 C                    14   B14      5    A13      4    D12      0
 C                    15   B15      14   A14      5    D13      0
 H                    16   B16      15   A15      14   D14      0
 H                    16   B17      15   A16      14   D15      0
 H                    16   B18      15   A17      14   D16      0
 C                    14   B19      5    A18      4    D17      0
 H                    20   B20      14   A19      5    D18      0
 H                    20   B21      14   A20      5    D19      0
 H                    20   B22      14   A21      5    D20      0
 S                    15   B23      14   A22      5    D21      0
 O                    24   B24      15   A23      14   D22      0
 O                    24   B25      15   A24      14   D23      0
 C                    24   B26      15   A25      14   D24      0
 F                    27   B27      24   A26      15   D25      0
 F                    27   B28      24   A27      15   D26      0
 F                    27   B29      24   A28      15   D27      0
 O                    24   B30      15   A29      14   D28      0
       Variables:
  B1                    1.4014                   
  B2                    1.4014                   
  B3                    1.4014                   
  B4                    1.4014                   
  B5                    1.4014                   
  B6                    1.07                     
  B7                    1.07                     
  B8                    1.07                     
  B9                    1.07                     
  B10                   1.47                     
  B11                   1.1968                   
  B12                   1.1968                   
  B13                   1.54                     
  B14                   1.3552                   
  B15                   1.54                     
  B16                   1.07                     
  B17                   1.07                     
  B18                   1.07                     
  B19                   1.54                     
  B20                   1.07                     
  B21                   1.07                     
  B22                   1.07                     
  B23                   2.53493                  
  B24                   1.4696                   
  B25                   1.4696                   
  B26                   1.78                     
  B27                   1.35                     
  B28                   1.35                     
  B29                   1.35                     
  B30                   1.67                     
  A1                  120.                       
  A2                  120.                       
  A3                  120.                       
  A4                  120.                       
  A5                  120.                       
  A6                  120.                       
  A7                  120.                       
  A8                  120.                       
  A9                  120.                       
  A10                 120.                       
  A11                 120.                       
  A12                 120.                       
  A13                 120.                       
  A14                 120.                       
  A15                 109.47122                  
  A16                 109.47122                  
  A17                 109.47122                  
  A18                 120.                       
  A19                 109.47122                  
  A20                 109.47122                  
  A21                 109.47122                  
  A22                 113.07018                  
  A23                 141.60215                  
  A24                  91.8085                   
  A25                  91.8085                   
  A26                 109.47122                  
  A27                 109.47122                  
  A28                 109.47122                  
  A29                  32.13093                  
  D1                    0.                       
  D2                    0.                       
  D3                    0.                       
  D4                 -180.                       
  D5                 -180.                       
  D6                  180.                       
  D7                  180.                       
  D8                  180.                       
  D9                    0.                       
  D10                 180.                       
  D11                -180.                       
  D12                -180.                       
  D13                   0.                       
  D14                 -30.                       
  D15                  90.                       
  D16                -150.                       
  D17                   0.                       
  D18                 -30.                       
  D19                  90.                       
  D20                -150.                       
  D21                 137.53727                  
  D22                 109.72798                  
  D23                 -15.49601                  
  D24                -125.04803                  
  D25                 -87.44069                  
  D26                 152.55931                  
  D27                  32.55931                  
  D28                 109.72798                  
 
     9 tetrahedral angles replaced.

 GradGradGradGradGradGradGradGradGradGradGradGradGradGradGradGradGradGrad
 Berny optimization.
 Initialization pass.
                           ----------------------------
                           !    Initial Parameters    !
                           ! (Angstroms and Degrees)  !
 --------------------------                            --------------------------
 ! Name  Definition              Value          Derivative Info.                !
 --------------------------------------------------------------------------------
 ! R1    R(1,2)                  1.4014         estimate D2E/DX2                !
 ! R2    R(1,6)                  1.4014         estimate D2E/DX2                !
 ! R3    R(1,7)                  1.07           estimate D2E/DX2                !
 ! R4    R(2,3)                  1.4014         estimate D2E/DX2                !
 ! R5    R(2,11)                 1.47           estimate D2E/DX2                !
 ! R6    R(3,4)                  1.4014         estimate D2E/DX2                !
 ! R7    R(3,8)                  1.07           estimate D2E/DX2                !
 ! R8    R(4,5)                  1.4014         estimate D2E/DX2                !
 ! R9    R(4,9)                  1.07           estimate D2E/DX2                !
 ! R10   R(5,6)                  1.4014         estimate D2E/DX2                !
 ! R11   R(5,14)                 1.54           estimate D2E/DX2                !
 ! R12   R(6,10)                 1.07           estimate D2E/DX2                !
 ! R13   R(11,12)                1.1968         estimate D2E/DX2                !
 ! R14   R(11,13)                1.1968         estimate D2E/DX2                !
 ! R15   R(14,15)                1.3552         estimate D2E/DX2                !
 ! R16   R(14,20)                1.54           estimate D2E/DX2                !
 ! R17   R(15,16)                1.54           estimate D2E/DX2                !
 ! R18   R(15,31)                1.43           estimate D2E/DX2                !
 ! R19   R(16,17)                1.07           estimate D2E/DX2                !
 ! R20   R(16,18)                1.07           estimate D2E/DX2                !
 ! R21   R(16,19)                1.07           estimate D2E/DX2                !
 ! R22   R(20,21)                1.07           estimate D2E/DX2                !
 ! R23   R(20,22)                1.07           estimate D2E/DX2                !
 ! R24   R(20,23)                1.07           estimate D2E/DX2                !
 ! R25   R(24,25)                1.4696         estimate D2E/DX2                !
 ! R26   R(24,26)                1.4696         estimate D2E/DX2                !
 ! R27   R(24,27)                1.78           estimate D2E/DX2                !
 ! R28   R(24,31)                1.67           estimate D2E/DX2                !
 ! R29   R(27,28)                1.35           estimate D2E/DX2                !
 ! R30   R(27,29)                1.35           estimate D2E/DX2                !
 ! R31   R(27,30)                1.35           estimate D2E/DX2                !
 ! A1    A(2,1,6)              120.0            estimate D2E/DX2                !
 ! A2    A(2,1,7)              120.0            estimate D2E/DX2                !
 ! A3    A(6,1,7)              120.0            estimate D2E/DX2                !
 ! A4    A(1,2,3)              120.0            estimate D2E/DX2                !
 ! A5    A(1,2,11)             120.0            estimate D2E/DX2                !
 ! A6    A(3,2,11)             120.0            estimate D2E/DX2                !
 ! A7    A(2,3,4)              120.0            estimate D2E/DX2                !
 ! A8    A(2,3,8)              120.0            estimate D2E/DX2                !
 ! A9    A(4,3,8)              120.0            estimate D2E/DX2                !
 ! A10   A(3,4,5)              120.0            estimate D2E/DX2                !
 ! A11   A(3,4,9)              120.0            estimate D2E/DX2                !
 ! A12   A(5,4,9)              120.0            estimate D2E/DX2                !
 ! A13   A(4,5,6)              120.0            estimate D2E/DX2                !
 ! A14   A(4,5,14)             120.0            estimate D2E/DX2                !
 ! A15   A(6,5,14)             120.0            estimate D2E/DX2                !
 ! A16   A(1,6,5)              120.0            estimate D2E/DX2                !
 ! A17   A(1,6,10)             120.0            estimate D2E/DX2                !
 ! A18   A(5,6,10)             120.0            estimate D2E/DX2                !
 ! A19   A(2,11,12)            120.0            estimate D2E/DX2                !
 ! A20   A(2,11,13)            120.0            estimate D2E/DX2                !
 ! A21   A(12,11,13)           120.0            estimate D2E/DX2                !
 ! A22   A(5,14,15)            120.0            estimate D2E/DX2                !
 ! A23   A(5,14,20)            120.0            estimate D2E/DX2                !
 ! A24   A(15,14,20)           120.0            estimate D2E/DX2                !
 ! A25   A(14,15,16)           120.0            estimate D2E/DX2                !
 ! A26   A(14,15,31)           120.0            estimate D2E/DX2                !
 ! A27   A(16,15,31)           120.0            estimate D2E/DX2                !
 ! A28   A(15,16,17)           109.4712         estimate D2E/DX2                !
 ! A29   A(15,16,18)           109.4712         estimate D2E/DX2                !
 ! A30   A(15,16,19)           109.4712         estimate D2E/DX2                !
 ! A31   A(17,16,18)           109.4712         estimate D2E/DX2                !
 ! A32   A(17,16,19)           109.4712         estimate D2E/DX2                !
 ! A33   A(18,16,19)           109.4712         estimate D2E/DX2                !
 ! A34   A(14,20,21)           109.4712         estimate D2E/DX2                !
 ! A35   A(14,20,22)           109.4712         estimate D2E/DX2                !
 ! A36   A(14,20,23)           109.4712         estimate D2E/DX2                !
 ! A37   A(21,20,22)           109.4712         estimate D2E/DX2                !
 ! A38   A(21,20,23)           109.4712         estimate D2E/DX2                !
 ! A39   A(22,20,23)           109.4712         estimate D2E/DX2                !
 ! A40   A(25,24,26)           109.4712         estimate D2E/DX2                !
 ! A41   A(25,24,27)           109.4712         estimate D2E/DX2                !
 ! A42   A(25,24,31)           109.4712         estimate D2E/DX2                !
 ! A43   A(26,24,27)           109.4712         estimate D2E/DX2                !
 ! A44   A(26,24,31)           109.4712         estimate D2E/DX2                !
 ! A45   A(27,24,31)           109.4712         estimate D2E/DX2                !
 ! A46   A(24,27,28)           109.4712         estimate D2E/DX2                !
 ! A47   A(24,27,29)           109.4712         estimate D2E/DX2                !
 ! A48   A(24,27,30)           109.4712         estimate D2E/DX2                !
 ! A49   A(28,27,29)           109.4712         estimate D2E/DX2                !
 ! A50   A(28,27,30)           109.4712         estimate D2E/DX2                !
 ! A51   A(29,27,30)           109.4712         estimate D2E/DX2                !
 ! A52   A(15,31,24)           109.4712         estimate D2E/DX2                !
 ! D1    D(6,1,2,3)              0.0            estimate D2E/DX2                !
 ! D2    D(6,1,2,11)           180.0            estimate D2E/DX2                !
 ! D3    D(7,1,2,3)            180.0            estimate D2E/DX2                !
 ! D4    D(7,1,2,11)             0.0            estimate D2E/DX2                !
 ! D5    D(2,1,6,5)              0.0            estimate D2E/DX2                !
 ! D6    D(2,1,6,10)           180.0            estimate D2E/DX2                !
 ! D7    D(7,1,6,5)            180.0            estimate D2E/DX2                !
 ! D8    D(7,1,6,10)             0.0            estimate D2E/DX2                !
 ! D9    D(1,2,3,4)              0.0            estimate D2E/DX2                !
 ! D10   D(1,2,3,8)            180.0            estimate D2E/DX2                !
 ! D11   D(11,2,3,4)           180.0            estimate D2E/DX2                !
 ! D12   D(11,2,3,8)             0.0            estimate D2E/DX2                !
 ! D13   D(1,2,11,12)            0.0            estimate D2E/DX2                !
 ! D14   D(1,2,11,13)          180.0            estimate D2E/DX2                !
 ! D15   D(3,2,11,12)          180.0            estimate D2E/DX2                !
 ! D16   D(3,2,11,13)            0.0            estimate D2E/DX2                !
 ! D17   D(2,3,4,5)              0.0            estimate D2E/DX2                !
 ! D18   D(2,3,4,9)            180.0            estimate D2E/DX2                !
 ! D19   D(8,3,4,5)            180.0            estimate D2E/DX2                !
 ! D20   D(8,3,4,9)              0.0            estimate D2E/DX2                !
 ! D21   D(3,4,5,6)              0.0            estimate D2E/DX2                !
 ! D22   D(3,4,5,14)           180.0            estimate D2E/DX2                !
 ! D23   D(9,4,5,6)            180.0            estimate D2E/DX2                !
 ! D24   D(9,4,5,14)             0.0            estimate D2E/DX2                !
 ! D25   D(4,5,6,1)              0.0            estimate D2E/DX2                !
 ! D26   D(4,5,6,10)           180.0            estimate D2E/DX2                !
 ! D27   D(14,5,6,1)           180.0            estimate D2E/DX2                !
 ! D28   D(14,5,6,10)            0.0            estimate D2E/DX2                !
 ! D29   D(4,5,14,15)          180.0            estimate D2E/DX2                !
 ! D30   D(4,5,14,20)            0.0            estimate D2E/DX2                !
 ! D31   D(6,5,14,15)            0.0            estimate D2E/DX2                !
 ! D32   D(6,5,14,20)          180.0            estimate D2E/DX2                !
 ! D33   D(5,14,15,16)           0.0            estimate D2E/DX2                !
 ! D34   D(5,14,15,31)         180.0            estimate D2E/DX2                !
 ! D35   D(20,14,15,16)        180.0            estimate D2E/DX2                !
 ! D36   D(20,14,15,31)          0.0            estimate D2E/DX2                !
 ! D37   D(5,14,20,21)         -30.0            estimate D2E/DX2                !
 ! D38   D(5,14,20,22)          90.0            estimate D2E/DX2                !
 ! D39   D(5,14,20,23)        -150.0            estimate D2E/DX2                !
 ! D40   D(15,14,20,21)        150.0            estimate D2E/DX2                !
 ! D41   D(15,14,20,22)        -90.0            estimate D2E/DX2                !
 ! D42   D(15,14,20,23)         30.0            estimate D2E/DX2                !
 ! D43   D(14,15,16,17)        -30.0            estimate D2E/DX2                !
 ! D44   D(14,15,16,18)         90.0            estimate D2E/DX2                !
 ! D45   D(14,15,16,19)       -150.0            estimate D2E/DX2                !
 ! D46   D(31,15,16,17)        150.0            estimate D2E/DX2                !
 ! D47   D(31,15,16,18)        -90.0            estimate D2E/DX2                !
 ! D48   D(31,15,16,19)         30.0            estimate D2E/DX2                !
 ! D49   D(14,15,31,24)        -90.0            estimate D2E/DX2                !
 ! D50   D(16,15,31,24)         90.0            estimate D2E/DX2                !
 ! D51   D(25,24,27,28)         60.0            estimate D2E/DX2                !
 ! D52   D(25,24,27,29)        -60.0            estimate D2E/DX2                !
 ! D53   D(25,24,27,30)        180.0            estimate D2E/DX2                !
 ! D54   D(26,24,27,28)        180.0            estimate D2E/DX2                !
 ! D55   D(26,24,27,29)         60.0            estimate D2E/DX2                !
 ! D56   D(26,24,27,30)        -60.0            estimate D2E/DX2                !
 ! D57   D(31,24,27,28)        -60.0            estimate D2E/DX2                !
 ! D58   D(31,24,27,29)       -180.0            estimate D2E/DX2                !
 ! D59   D(31,24,27,30)         60.0            estimate D2E/DX2                !
 ! D60   D(25,24,31,15)        180.0            estimate D2E/DX2                !
 ! D61   D(26,24,31,15)         60.0            estimate D2E/DX2                !
 ! D62   D(27,24,31,15)        -60.0            estimate D2E/DX2                !
 --------------------------------------------------------------------------------
 Trust Radius=3.00D-01 FncErr=1.00D-07 GrdErr=1.00D-06 EigMax=2.50D+02 EigMin=1.00D-04
 Number of steps in this run=    155 maximum allowed number of steps=    186.
 GradGradGradGradGradGradGradGradGradGradGradGradGradGradGradGradGradGrad

                          Input orientation:                          
 ---------------------------------------------------------------------
 Center     Atomic      Atomic             Coordinates (Angstroms)
 Number     Number       Type             X           Y           Z
 ---------------------------------------------------------------------
      1          6           0        0.000000    0.000000    0.000000
      2          6           0        0.000000    0.000000    1.401400
      3          6           0        1.213648    0.000000    2.102100
      4          6           0        2.427296    0.000000    1.401400
      5          6           0        2.427296    0.000000    0.000000
      6          6           0        1.213648    0.000000   -0.700700
      7          1           0       -0.926647    0.000000   -0.535000
      8          1           0        1.213648    0.000000    3.172100
      9          1           0        3.353943    0.000000    1.936400
     10          1           0        1.213648    0.000000   -1.770700
     11          7           0       -1.273057    0.000000    2.136400
     12          8           0       -2.309517    0.000000    1.538000
     13          8           0       -1.273057    0.000000    3.333200
     14          6           0        3.760975    0.000000   -0.770000
     15          6           0        3.760975    0.000000   -2.125200
     16          6           0        2.427296    0.000000   -2.895200
     17          1           0        1.681588   -0.504403   -2.316929
     18          1           0        2.118414    1.008806   -3.073533
     19          1           0        2.555239   -0.504403   -3.830138
     20          6           0        5.094654    0.000000    0.000000
     21          1           0        4.966711    0.504403    0.934938
     22          1           0        5.403537   -1.008806    0.178333
     23          1           0        5.840362    0.504403   -0.578271
     24         16           0        5.481478    1.574492   -3.118533
     25          8           0        6.754189    1.574493   -3.853333
     26          8           0        5.657202    2.267269   -1.834436
     27          6           0        4.240953    2.413592   -4.080517
     28          9           0        4.079530    1.777195   -5.260111
     29          9           0        4.630664    3.686384   -4.305517
     30          9           0        3.071819    2.413591   -3.405517
     31          8           0        4.999391    0.000001   -2.840200
 ---------------------------------------------------------------------
                    Distance matrix (angstroms):
                    1          2          3          4          5
     1  C    0.000000
     2  C    1.401400   0.000000
     3  C    2.427296   1.401400   0.000000
     4  C    2.802800   2.427296   1.401400   0.000000
     5  C    2.427296   2.802800   2.427296   1.401400   0.000000
     6  C    1.401400   2.427296   2.802800   2.427296   1.401400
     7  H    1.070000   2.146700   3.396345   3.872800   3.396345
     8  H    3.396345   2.146700   1.070000   2.146700   3.396345
     9  H    3.872800   3.396345   2.146700   1.070000   2.146700
    10  H    2.146700   3.396345   3.872800   3.396345   2.146700
    11  N    2.486942   1.470000   2.486942   3.772644   4.272800
    12  O    2.774763   2.313553   3.568038   4.738782   4.980245
    13  O    3.568038   2.313553   2.774763   4.174262   4.980245
    14  C    3.838989   4.342800   3.838989   2.548270   1.540000
    15  C    4.319885   5.155758   4.935478   3.770359   2.509019
    16  C    3.778088   4.934829   5.142562   4.296600   2.895200
    17  H    2.906944   4.111950   4.472271   3.825764   2.485692
    18  H    3.866778   5.052761   5.350091   4.597622   3.249570
    19  H    4.631806   5.844027   6.102928   5.257355   3.865326
    20  C    5.094654   5.283883   4.413732   3.013092   2.667358
    21  H    5.079050   5.014003   3.962597   2.630711   2.752664
    22  H    5.499791   5.631322   4.719506   3.372179   3.147618
    23  H    5.890556   6.187354   5.370782   3.977756   3.498263
    24  S    6.500067   7.277048   6.924479   5.677750   4.640291
    25  O    7.933869   8.701168   8.285156   6.986648   6.004099
    26  O    6.364715   6.900368   6.354683   5.103277   4.351776
    27  C    6.360953   7.339109   7.294844   6.258290   5.075962
    28  F    6.889830   8.011037   8.097768   7.089713   5.792846
    29  F    7.319149   8.222005   8.143892   7.142349   6.081261
    30  F    5.182570   6.194186   6.293811   5.417313   4.223550
    31  O    5.749839   6.556301   6.225607   4.960529   3.831763
                    6          7          8          9         10
     6  C    0.000000
     7  H    2.146700   0.000000
     8  H    3.872800   4.280590   0.000000
     9  H    3.396345   4.942800   2.471400   0.000000
    10  H    1.070000   2.471400   4.942800   4.280590   0.000000
    11  N    3.772644   2.693767   2.693767   4.631321   4.631321
    12  O    4.174262   2.491918   3.883680   5.677455   4.833237
    13  O    4.738782   3.883680   2.491918   4.833237   5.677455
    14  C    2.548270   4.693509   4.693509   2.736837   2.736837
    15  C    2.918574   4.950004   5.877947   4.081944   2.571876
    16  C    2.507742   4.101156   6.187493   4.919658   1.654522
    17  H    1.756584   3.198841   5.531982   4.598043   0.878497
    18  H    2.732513   4.090750   6.390949   5.257723   1.879804
    19  H    3.442044   4.820362   7.147421   5.843398   2.509098
    20  C    3.943753   6.045022   5.012427   2.603790   4.265863
    21  H    4.124950   6.094818   4.398272   1.964273   4.654071
    22  H    4.398358   6.449633   5.247427   2.882589   4.729861
    23  H    4.655738   6.785920   5.977139   3.572152   4.804456
    24  S    5.151632   7.086447   7.763083   5.705943   4.744476
    25  O    6.566256   8.513848   9.084786   6.896500   6.124866
    26  O    5.115763   7.083510   7.067608   4.966358   4.988962
    27  C    5.139374   6.715669   8.221341   6.543355   4.508354
    28  F    5.670973   7.109635   9.081513   7.448132   4.852596
    29  F    6.185477   7.660935   9.010004   7.360772   5.629451
    30  F    4.073604   5.482063   7.248673   5.868653   3.456999
    31  O    4.348484   6.358607   7.104900   5.052070   3.933915
                   11         12         13         14         15
    11  N    0.000000
    12  O    1.196800   0.000000
    13  O    1.196800   2.072918   0.000000
    14  C    5.812800   6.494439   6.494439   0.000000
    15  C    6.595659   7.090127   7.425336   1.355200   0.000000
    16  C    6.245768   6.487731   7.244693   2.509019   1.540000
    17  H    5.368099   5.571698   6.395960   2.640315   2.148263
    18  H    6.297870   6.472287   7.318879   3.003658   2.148263
    19  H    7.107028   7.262036   8.137793   3.327561   2.148263
    20  C    6.716543   7.562221   7.187348   1.540000   2.509019
    21  H    6.374374   7.318579   6.703789   2.148263   3.327561
    22  H    7.030549   7.896681   7.453038   2.148263   3.003658
    23  H    7.630505   8.435256   8.133558   2.148263   2.640315
    24  S    8.701557   9.212053   9.472467   3.309798   2.534929
    25  O   10.138669  10.662845  10.888616   4.576604   3.798000
    26  O    8.302803   8.943290   8.937195   3.141529   2.969971
    27  C    8.653311   8.961128   9.549499   4.124964   3.143098
    28  F    9.301451   9.496981  10.278794   4.839524   3.617674
    29  F    9.483757   9.792968  10.334087   5.181280   4.370305
    30  F    7.444207   7.695619   8.373391   3.639547   2.817724
    31  O    8.006882   8.519904   8.800823   2.412344   1.430000
                   16         17         18         19         20
    16  C    0.000000
    17  H    1.070000   0.000000
    18  H    1.070000   1.747303   0.000000
    19  H    1.070000   1.747303   1.747303   0.000000
    20  C    3.936621   4.155912   4.395714   4.623095   0.000000
    21  H    4.623095   4.731211   4.943183   5.434963   1.070000
    22  H    4.395714   4.509286   5.043553   4.943183   1.070000
    23  H    4.155912   4.619094   4.509286   4.731211   1.070000
    24  S    3.443389   4.404945   3.410605   3.659379   3.514813
    25  O    4.703089   5.693297   4.734818   4.685459   4.481212
    26  O    4.086321   4.870366   3.955011   4.613801   2.970206
    27  C    3.243417   4.263248   2.737264   3.379203   4.817141
    28  F    3.388378   4.429236   3.036037   3.094184   5.644260
    29  F    4.520315   5.496747   3.872804   4.700645   5.687019
    30  F    2.549755   3.410638   1.729918   2.993634   4.638408
    31  O    2.572683   3.396477   3.061399   2.684824   2.841797
                   21         22         23         24         25
    21  H    0.000000
    22  H    1.747303   0.000000
    23  H    1.747303   1.747303   0.000000
    24  S    4.223826   4.189133   2.779716   0.000000
    25  O    5.221849   4.975141   3.564577   1.469600   0.000000
    26  O    3.354684   3.853343   2.172371   1.469600   2.399847
    27  C    5.415395   5.585894   4.297538   1.780000   2.659333
    28  F    6.386370   6.252317   5.161410   2.567664   3.028846
    29  F    6.140056   6.538123   5.047845   2.567664   3.028846
    30  F    5.106384   5.476649   4.393535   2.567664   3.803218
    31  O    3.808826   3.208203   2.465355   1.670000   2.566082
                   26         27         28         29         30
    26  O    0.000000
    27  C    2.659333   0.000000
    28  F    3.803218   1.350000   0.000000
    29  F    3.028846   1.350000   2.204541   0.000000
    30  F    3.028846   1.350000   2.204541   2.204541   0.000000
    31  O    2.566082   2.817629   3.140149   3.984035   3.140149
                   31
    31  O    0.000000
 Stoichiometry    C11H10F3NO5S
 Framework group  C1[X(C11H10F3NO5S)]
 Deg. of freedom    87
 Full point group                 C1      NOp   1
 Largest Abelian subgroup         C1      NOp   1
 Largest concise Abelian subgroup C1      NOp   1
                         Standard orientation:                         
 ---------------------------------------------------------------------
 Center     Atomic      Atomic             Coordinates (Angstroms)
 Number     Number       Type             X           Y           Z
 ---------------------------------------------------------------------
      1          6           0       -3.121639   -0.998033    0.440530
      2          6           0       -4.074641   -0.122362   -0.096974
      3          6           0       -3.710341    1.187928   -0.435124
      4          6           0       -2.393038    1.622548   -0.235771
      5          6           0       -1.440036    0.746877    0.301732
      6          6           0       -1.804337   -0.563413    0.639883
      7          1           0       -3.399791   -1.998469    0.698715
      8          1           0       -4.437979    1.856522   -0.845520
      9          1           0       -2.114886    2.622984   -0.493957
     10          1           0       -1.076698   -1.232007    1.050278
     11          7           0       -5.456427   -0.578257   -0.306085
     12          8           0       -5.767541   -1.697250   -0.017304
     13          8           0       -6.270294    0.169568   -0.765115
     14          6           0        0.007549    1.224481    0.520801
     15          6           0        0.929133    0.377679    1.040585
     16          6           0        0.528803   -1.062201    1.412179
     17          1           0       -0.502112   -1.083290    1.697958
     18          1           0        0.678190   -1.702965    0.568375
     19          1           0        1.132180   -1.400783    2.228389
     20          6           0        0.407879    2.664361    0.149207
     21          1           0       -0.195497    3.002944   -0.667003
     22          1           0        0.258493    3.305125    0.993011
     23          1           0        1.438794    2.685451   -0.136572
     24         16           0        3.174443    0.514213   -0.128094
     25          8           0        4.555853    0.969983    0.080960
     26          8           0        2.589211    1.231888   -1.269220
     27          6           0        3.170581   -1.234255   -0.461630
     28          9           0        3.708186   -1.893523    0.586628
     29          9           0        3.899034   -1.482392   -1.570812
     30          9           0        1.901594   -1.652933   -0.653671
     31          8           0        2.273320    0.821168    1.244005
 ---------------------------------------------------------------------
 Rotational constants (GHZ):           0.7035951           0.1256870           0.1159016
 General basis read from cards:  (5D, 7F)
 There are   581 symmetry adapted cartesian basis functions of A   symmetry.
 There are   520 symmetry adapted basis functions of A   symmetry.
   520 basis functions,   873 primitive gaussians,   581 cartesian basis functions
    83 alpha electrons       83 beta electrons
       nuclear repulsion energy      1967.2826261538 Hartrees.
 NAtoms=   31 NActive=   31 NUniq=   31 SFac= 1.00D+00 NAtFMM=   60 NAOKFM=F Big=F
 Integral buffers will be    131072 words long.
 Raffenetti 2 integral format.
 Two-electron integral symmetry is turned on.
 One-electron integrals computed using PRISM.
 NBasis=   520 RedAO= T EigKep=  2.52D-04  NBF=   520
 NBsUse=   520 1.00D-06 EigRej= -1.00D+00 NBFU=   520
 ExpMin= 1.08D-01 ExpMax= 6.07D+04 ExpMxC= 2.07D+03 IAcc=3 IRadAn=         5 AccDes= 0.00D+00
 Harris functional with IExCor= 1009 and IRadAn=       5 diagonalized for initial guess.
 HarFok:  IExCor= 1009 AccDes= 0.00D+00 IRadAn=         5 IDoV= 1 UseB2=F ITyADJ=14
 ICtDFT=  3500011 ScaDFX=  1.000000  1.000000  1.000000  1.000000
 FoFCou: FMM=F IPFlag=           0 FMFlag=      100000 FMFlg1=           0
         NFxFlg=           0 DoJE=T BraDBF=F KetDBF=T FulRan=T
         wScrn=  0.000000 ICntrl=       500 IOpCl=  0 I1Cent=   200000004 NGrid=           0
         NMat0=    1 NMatS0=      1 NMatT0=    0 NMatD0=    1 NMtDS0=    0 NMtDT0=    0
 Petite list used in FoFCou.
 Requested convergence on RMS density matrix=1.00D-08 within 128 cycles.
 Requested convergence on MAX density matrix=1.00D-06.
 Requested convergence on             energy=1.00D-06.
 No special actions if energy rises.
 Integral accuracy reduced to 1.0D-05 until final iterations.
 Initial convergence to 1.0D-05 achieved.  Increase integral accuracy.
 SCF Done:  E(RM062X) =  -1553.04738875     A.U. after   15 cycles
            NFock= 15  Conv=0.64D-08     -V/T= 2.0051

 **********************************************************************

            Population analysis using the SCF Density.

 **********************************************************************

 Orbital symmetries:
       Occupied  (A) (A) (A) (A) (A) (A) (A) (A) (A) (A) (A) (A)
                 (A) (A) (A) (A) (A) (A) (A) (A) (A) (A) (A) (A)
                 (A) (A) (A) (A) (A) (A) (A) (A) (A) (A) (A) (A)
                 (A) (A) (A) (A) (A) (A) (A) (A) (A) (A) (A) (A)
                 (A) (A) (A) (A) (A) (A) (A) (A) (A) (A) (A) (A)
                 (A) (A) (A) (A) (A) (A) (A) (A) (A) (A) (A) (A)
                 (A) (A) (A) (A) (A) (A) (A) (A) (A) (A) (A)
       Virtual   (A) (A) (A) (A) (A) (A) (A) (A) (A) (A) (A) (A)
                 (A) (A) (A) (A) (A) (A) (A) (A) (A) (A) (A) (A)
                 (A) (A) (A) (A) (A) (A) (A) (A) (A) (A) (A) (A)
                 (A) (A) (A) (A) (A) (A) (A) (A) (A) (A) (A) (A)
                 (A) (A) (A) (A) (A) (A) (A) (A) (A) (A) (A) (A)
                 (A) (A) (A) (A) (A) (A) (A) (A) (A) (A) (A) (A)
                 (A) (A) (A) (A) (A) (A) (A) (A) (A) (A) (A) (A)
                 (A) (A) (A) (A) (A) (A) (A) (A) (A) (A) (A) (A)
                 (A) (A) (A) (A) (A) (A) (A) (A) (A) (A) (A) (A)
                 (A) (A) (A) (A) (A) (A) (A) (A) (A) (A) (A) (A)
                 (A) (A) (A) (A) (A) (A) (A) (A) (A) (A) (A) (A)
                 (A) (A) (A) (A) (A) (A) (A) (A) (A) (A) (A) (A)
                 (A) (A) (A) (A) (A) (A) (A) (A) (A) (A) (A) (A)
                 (A) (A) (A) (A) (A) (A) (A) (A) (A) (A) (A) (A)
                 (A) (A) (A) (A) (A) (A) (A) (A) (A) (A) (A) (A)
                 (A) (A) (A) (A) (A) (A) (A) (A) (A) (A) (A) (A)
                 (A) (A) (A) (A) (A) (A) (A) (A) (A) (A) (A) (A)
                 (A) (A) (A) (A) (A) (A) (A) (A) (A) (A) (A) (A)
                 (A) (A) (A) (A) (A) (A) (A) (A) (A) (A) (A) (A)
                 (A) (A) (A) (A) (A) (A) (A) (A) (A) (A) (A) (A)
                 (A) (A) (A) (A) (A) (A) (A) (A) (A) (A) (A) (A)
                 (A) (A) (A) (A) (A) (A) (A) (A) (A) (A) (A) (A)
                 (A) (A) (A) (A) (A) (A) (A) (A) (A) (A) (A) (A)
                 (A) (A) (A) (A) (A) (A) (A) (A) (A) (A) (A) (A)
                 (A) (A) (A) (A) (A) (A) (A) (A) (A) (A) (A) (A)
                 (A) (A) (A) (A) (A) (A) (A) (A) (A) (A) (A) (A)
                 (A) (A) (A) (A) (A) (A) (A) (A) (A) (A) (A) (A)
                 (A) (A) (A) (A) (A) (A) (A) (A) (A) (A) (A) (A)
                 (A) (A) (A) (A) (A) (A) (A) (A) (A) (A) (A) (A)
                 (A) (A) (A) (A) (A) (A) (A) (A) (A) (A) (A) (A)
                 (A) (A) (A) (A) (A) (A) (A) (A) (A) (A) (A) (A)
                 (A) (A) (A) (A) (A) (A) (A) (A) (A) (A) (A) (A)
                 (A) (A) (A) (A) (A) (A) (A) (A) (A) (A) (A) (A)
                 (A) (A) (A) (A) (A) (A) (A) (A) (A) (A) (A) (A)
                 (A) (A) (A) (A) (A) (A) (A) (A) (A) (A) (A) (A)
                 (A) (A) (A) (A) (A) (A) (A) (A) (A) (A) (A) (A)
                 (A) (A) (A) (A) (A)
 The electronic state is 1-A.
 Alpha  occ. eigenvalues --  -90.17610 -25.35440 -25.35005 -25.34885 -19.75318
 Alpha  occ. eigenvalues --  -19.66948 -19.66770 -19.66285 -19.66279 -15.00560
 Alpha  occ. eigenvalues --  -10.90375 -10.66414 -10.64078 -10.61829 -10.61400
 Alpha  occ. eigenvalues --  -10.60593 -10.60425 -10.59999 -10.58163 -10.57516
 Alpha  occ. eigenvalues --  -10.56786  -8.50282  -6.42507  -6.42353  -6.42235
 Alpha  occ. eigenvalues --   -1.52837  -1.44696  -1.43887  -1.39531  -1.30246
 Alpha  occ. eigenvalues --   -1.21522  -1.19234  -1.15214  -1.01145  -0.96293
 Alpha  occ. eigenvalues --   -0.93191  -0.90719  -0.89509  -0.86085  -0.82699
 Alpha  occ. eigenvalues --   -0.80644  -0.79103  -0.76443  -0.75994  -0.74659
 Alpha  occ. eigenvalues --   -0.72908  -0.69588  -0.67590  -0.65305  -0.64630
 Alpha  occ. eigenvalues --   -0.64550  -0.64335  -0.63052  -0.62257  -0.61235
 Alpha  occ. eigenvalues --   -0.60716  -0.60277  -0.59939  -0.58693  -0.58414
 Alpha  occ. eigenvalues --   -0.57261  -0.56174  -0.54824  -0.54119  -0.52409
 Alpha  occ. eigenvalues --   -0.52078  -0.50616  -0.48235  -0.47929  -0.47655
 Alpha  occ. eigenvalues --   -0.47421  -0.45868  -0.44862  -0.43544  -0.43177
 Alpha  occ. eigenvalues --   -0.41105  -0.40926  -0.39092  -0.38741  -0.38274
 Alpha  occ. eigenvalues --   -0.37807  -0.34785  -0.31949
 Alpha virt. eigenvalues --   -0.07269  -0.02151  -0.01970  -0.00239   0.02917
 Alpha virt. eigenvalues --    0.05462   0.07238   0.08221   0.10132   0.10795
 Alpha virt. eigenvalues --    0.11446   0.12589   0.14559   0.14781   0.15492
 Alpha virt. eigenvalues --    0.16353   0.16806   0.17777   0.19192   0.19714
 Alpha virt. eigenvalues --    0.19952   0.20433   0.21328   0.22262   0.22323
 Alpha virt. eigenvalues --    0.23140   0.24463   0.25890   0.27492   0.27876
 Alpha virt. eigenvalues --    0.28533   0.29580   0.29856   0.31639   0.32042
 Alpha virt. eigenvalues --    0.33694   0.34468   0.36092   0.36204   0.36571
 Alpha virt. eigenvalues --    0.38734   0.39344   0.40499   0.40878   0.41083
 Alpha virt. eigenvalues --    0.42129   0.42620   0.43219   0.43774   0.44572
 Alpha virt. eigenvalues --    0.44891   0.45638   0.46080   0.46700   0.47689
 Alpha virt. eigenvalues --    0.48269   0.49202   0.49789   0.50282   0.50646
 Alpha virt. eigenvalues --    0.51727   0.52680   0.53123   0.53912   0.55298
 Alpha virt. eigenvalues --    0.55501   0.56688   0.58352   0.59195   0.59344
 Alpha virt. eigenvalues --    0.59507   0.60373   0.60816   0.61302   0.61505
 Alpha virt. eigenvalues --    0.62510   0.62745   0.63664   0.63801   0.64521
 Alpha virt. eigenvalues --    0.65979   0.67102   0.67661   0.67783   0.68036
 Alpha virt. eigenvalues --    0.68898   0.69396   0.70296   0.70621   0.71319
 Alpha virt. eigenvalues --    0.71905   0.72431   0.72900   0.73404   0.74047
 Alpha virt. eigenvalues --    0.74191   0.74559   0.75679   0.77010   0.78298
 Alpha virt. eigenvalues --    0.78609   0.79458   0.79783   0.80325   0.81130
 Alpha virt. eigenvalues --    0.82519   0.84355   0.85064   0.86370   0.87643
 Alpha virt. eigenvalues --    0.88489   0.89549   0.91129   0.91569   0.92493
 Alpha virt. eigenvalues --    0.95137   0.96467   0.97916   0.97973   0.99533
 Alpha virt. eigenvalues --    1.01871   1.03775   1.04511   1.05305   1.07672
 Alpha virt. eigenvalues --    1.08258   1.08600   1.11703   1.12602   1.13218
 Alpha virt. eigenvalues --    1.15011   1.19076   1.20703   1.22567   1.22730
 Alpha virt. eigenvalues --    1.25022   1.26495   1.27507   1.27571   1.28588
 Alpha virt. eigenvalues --    1.29762   1.31774   1.33283   1.34192   1.35362
 Alpha virt. eigenvalues --    1.36871   1.39444   1.40404   1.41291   1.44440
 Alpha virt. eigenvalues --    1.46419   1.48586   1.49021   1.51148   1.51860
 Alpha virt. eigenvalues --    1.52823   1.54356   1.56216   1.58556   1.59802
 Alpha virt. eigenvalues --    1.59901   1.61331   1.61365   1.62342   1.63156
 Alpha virt. eigenvalues --    1.66289   1.66643   1.68114   1.69405   1.70452
 Alpha virt. eigenvalues --    1.70773   1.73025   1.73293   1.73830   1.74798
 Alpha virt. eigenvalues --    1.75571   1.75960   1.77274   1.78525   1.78726
 Alpha virt. eigenvalues --    1.80416   1.80910   1.81873   1.82733   1.83310
 Alpha virt. eigenvalues --    1.83816   1.84851   1.86493   1.87240   1.87871
 Alpha virt. eigenvalues --    1.89067   1.90513   1.90760   1.91957   1.92899
 Alpha virt. eigenvalues --    1.93171   1.93510   1.95933   1.96600   1.97249
 Alpha virt. eigenvalues --    1.98231   1.99312   2.00390   2.02081   2.03316
 Alpha virt. eigenvalues --    2.04473   2.06120   2.06439   2.07379   2.08084
 Alpha virt. eigenvalues --    2.08312   2.08555   2.09846   2.10246   2.11120
 Alpha virt. eigenvalues --    2.11770   2.13232   2.14174   2.14588   2.16000
 Alpha virt. eigenvalues --    2.17558   2.17909   2.19486   2.19788   2.21047
 Alpha virt. eigenvalues --    2.22437   2.23432   2.25151   2.27050   2.27621
 Alpha virt. eigenvalues --    2.27907   2.28692   2.31156   2.32069   2.33140
 Alpha virt. eigenvalues --    2.33813   2.34875   2.36675   2.37295   2.37808
 Alpha virt. eigenvalues --    2.38757   2.41257   2.41528   2.41983   2.42726
 Alpha virt. eigenvalues --    2.44663   2.45535   2.47787   2.48545   2.49711
 Alpha virt. eigenvalues --    2.52177   2.53665   2.54199   2.56138   2.59004
 Alpha virt. eigenvalues --    2.59816   2.60677   2.63509   2.64099   2.65711
 Alpha virt. eigenvalues --    2.67023   2.70336   2.71459   2.73153   2.76477
 Alpha virt. eigenvalues --    2.77002   2.77638   2.78796   2.79158   2.80197
 Alpha virt. eigenvalues --    2.81493   2.82827   2.82907   2.84634   2.85348
 Alpha virt. eigenvalues --    2.88794   2.88904   2.91095   2.92136   2.94711
 Alpha virt. eigenvalues --    2.96285   2.97813   2.99154   3.00946   3.02139
 Alpha virt. eigenvalues --    3.03815   3.05815   3.08019   3.10742   3.12550
 Alpha virt. eigenvalues --    3.13733   3.15475   3.17018   3.19052   3.25453
 Alpha virt. eigenvalues --    3.26494   3.28189   3.28977   3.30801   3.34073
 Alpha virt. eigenvalues --    3.41531   3.44328   3.48024   3.49181   3.58833
 Alpha virt. eigenvalues --    3.61390   3.66672   3.69498   3.74771   3.75394
 Alpha virt. eigenvalues --    3.91035   3.93094   3.93630   3.94812   4.06103
 Alpha virt. eigenvalues --    4.11736   4.14714   4.17044   4.25314   4.26540
 Alpha virt. eigenvalues --    4.32418   4.54953   4.57613   4.67960   4.70811
 Alpha virt. eigenvalues --    4.83392   5.04845   5.07311   5.08025   5.09001
 Alpha virt. eigenvalues --    5.11117   5.12242   5.12750   5.12938   5.14196
 Alpha virt. eigenvalues --    5.14339   5.14487   5.15908   5.16972   5.17105
 Alpha virt. eigenvalues --    5.18191   5.19071   5.22547   5.23909   5.27566
 Alpha virt. eigenvalues --    5.28601   5.34289   5.36402   5.38070   5.44079
 Alpha virt. eigenvalues --    5.51160   5.52367   5.54844   5.55610   5.61543
 Alpha virt. eigenvalues --    5.66349   5.68799   6.04695   6.23823   6.27272
 Alpha virt. eigenvalues --    6.27745   6.28195   6.30151   6.32042   6.35745
 Alpha virt. eigenvalues --    6.36068   6.39258   6.39286   6.39609   6.43332
 Alpha virt. eigenvalues --    6.50447   6.58750   6.60268   6.65380   6.67872
 Alpha virt. eigenvalues --    6.70770   6.72860   6.76810   6.77163   6.77643
 Alpha virt. eigenvalues --    6.78026   6.78718   6.79172   6.79365   6.80639
 Alpha virt. eigenvalues --    6.80702   6.81027   6.81686   6.81889   6.82268
 Alpha virt. eigenvalues --    6.82799   6.83041   6.84494   6.85311   6.85388
 Alpha virt. eigenvalues --    6.85821   6.86034   6.87240   6.94376   6.98900
 Alpha virt. eigenvalues --    7.00390   7.02863   7.03367   7.11640   7.12042
 Alpha virt. eigenvalues --    7.14549   7.15525   7.25588   7.36304   8.18577
 Alpha virt. eigenvalues --    8.21156   8.21242   8.23284   8.23676   8.25872
 Alpha virt. eigenvalues --    8.33912   8.37244   8.38310   8.50819   8.51197
 Alpha virt. eigenvalues --    8.55240   8.69613   8.70046   8.72431   9.16237
 Alpha virt. eigenvalues --    9.33814   9.49912  21.56769  32.31815  43.59872
 Alpha virt. eigenvalues --   43.73027  43.82804  44.09940  44.13219  57.05502
 Alpha virt. eigenvalues --   57.09657  57.23664
          Condensed to atoms (all electrons):
               1          2          3          4          5          6
     1  C    5.135355   0.252495   0.046278  -0.137281   0.107547   0.217818
     2  C    0.252495   5.457109   0.247196   0.110962  -0.178143   0.114980
     3  C    0.046278   0.247196   5.094544   0.266823   0.113331  -0.141222
     4  C   -0.137281   0.110962   0.266823   5.180334   0.249746   0.036961
     5  C    0.107547  -0.178143   0.113331   0.249746   5.266747   0.249698
     6  C    0.217818   0.114980  -0.141222   0.036961   0.249698   5.452513
     7  H    0.472140  -0.059724   0.014032  -0.002148   0.016104  -0.081626
     8  H    0.013698  -0.056687   0.463367  -0.071484   0.015284  -0.002051
     9  H   -0.001739   0.014605  -0.065309   0.460535  -0.065705   0.013949
    10  H   -0.069052   0.015434  -0.002212   0.013886  -0.067671   0.496367
    11  N   -0.072693   0.256487  -0.071895   0.012722   0.000554   0.014483
    12  O    0.011094  -0.145952   0.008494  -0.000282  -0.000040   0.001550
    13  O    0.008595  -0.145201   0.011206   0.001210  -0.000053  -0.000306
    14  C    0.009585   0.000917   0.011447  -0.082051   0.306832  -0.057382
    15  C    0.002148  -0.000242  -0.000255   0.015129  -0.024744  -0.039839
    16  C    0.006365  -0.000571  -0.000069  -0.001681  -0.011791  -0.157013
    17  H    0.004352  -0.000546  -0.000270   0.000537   0.014437  -0.114228
    18  H    0.001286  -0.000074   0.000028  -0.000197  -0.001313   0.000297
    19  H   -0.000488   0.000018  -0.000001   0.000081   0.001137   0.006691
    20  C   -0.000142  -0.000023   0.000910  -0.008756  -0.054918   0.008114
    21  H    0.000035  -0.000095   0.001566   0.005249  -0.020753  -0.000625
    22  H    0.000006   0.000003  -0.000035   0.001681  -0.001220  -0.000338
    23  H    0.000001   0.000003  -0.000036   0.000273   0.007263  -0.000010
    24  S   -0.000005   0.000000  -0.000001   0.000024  -0.000106   0.000001
    25  O   -0.000000   0.000000  -0.000000  -0.000000  -0.000001  -0.000000
    26  O    0.000001  -0.000000   0.000000  -0.000027  -0.000292  -0.000003
    27  C    0.000000  -0.000000   0.000000  -0.000003  -0.000010   0.000078
    28  F   -0.000000  -0.000000  -0.000000   0.000000   0.000001  -0.000004
    29  F   -0.000000  -0.000000   0.000000   0.000000  -0.000000   0.000000
    30  F   -0.000002  -0.000000  -0.000000  -0.000002   0.000087  -0.000098
    31  O    0.000016  -0.000000   0.000001  -0.000139   0.007555  -0.000798
               7          8          9         10         11         12
     1  C    0.472140   0.013698  -0.001739  -0.069052  -0.072693   0.011094
     2  C   -0.059724  -0.056687   0.014605   0.015434   0.256487  -0.145952
     3  C    0.014032   0.463367  -0.065309  -0.002212  -0.071895   0.008494
     4  C   -0.002148  -0.071484   0.460535   0.013886   0.012722  -0.000282
     5  C    0.016104   0.015284  -0.065705  -0.067671   0.000554  -0.000040
     6  C   -0.081626  -0.002051   0.013949   0.496367   0.014483   0.001550
     7  H    0.622441  -0.000138   0.000015  -0.014705  -0.017591   0.007784
     8  H   -0.000138   0.611834  -0.011402   0.000029  -0.018488   0.000382
     9  H    0.000015  -0.011402   0.650447  -0.000089  -0.000314   0.000006
    10  H   -0.014705   0.000029  -0.000089   0.746540  -0.000451  -0.000040
    11  N   -0.017591  -0.018488  -0.000314  -0.000451   5.658644   0.438890
    12  O    0.007784   0.000382   0.000006  -0.000040   0.438890   8.173317
    13  O    0.000392   0.007372   0.000003   0.000006   0.438875  -0.173996
    14  C   -0.000307  -0.000254  -0.022931  -0.027384   0.000107  -0.000000
    15  C    0.000070   0.000005   0.000852   0.008879  -0.000004  -0.000000
    16  C    0.000557  -0.000001   0.000012  -0.091368   0.000022   0.000000
    17  H    0.001123  -0.000003   0.000021   0.007466   0.000037  -0.000001
    18  H    0.000031  -0.000000  -0.000004   0.024144  -0.000001  -0.000000
    19  H   -0.000022  -0.000000  -0.000001  -0.000977  -0.000000   0.000000
    20  C    0.000002  -0.000008   0.006403  -0.000176  -0.000000   0.000000
    21  H    0.000000   0.000037  -0.000054   0.000018  -0.000000   0.000000
    22  H   -0.000000  -0.000001   0.000636  -0.000012  -0.000000  -0.000000
    23  H   -0.000000  -0.000000   0.000014   0.000023  -0.000000   0.000000
    24  S    0.000000  -0.000000   0.000002  -0.000147  -0.000000  -0.000000
    25  O    0.000000  -0.000000   0.000000  -0.000001  -0.000000  -0.000000
    26  O    0.000000   0.000000  -0.000002  -0.000013  -0.000000   0.000000
    27  C   -0.000000   0.000000  -0.000000   0.000111  -0.000000   0.000000
    28  F    0.000000  -0.000000  -0.000000  -0.000003   0.000000  -0.000000
    29  F    0.000000   0.000000   0.000000  -0.000001  -0.000000   0.000000
    30  F    0.000000   0.000000  -0.000000  -0.001061   0.000000  -0.000000
    31  O    0.000000  -0.000000  -0.000004   0.000184  -0.000000  -0.000000
              13         14         15         16         17         18
     1  C    0.008595   0.009585   0.002148   0.006365   0.004352   0.001286
     2  C   -0.145201   0.000917  -0.000242  -0.000571  -0.000546  -0.000074
     3  C    0.011206   0.011447  -0.000255  -0.000069  -0.000270   0.000028
     4  C    0.001210  -0.082051   0.015129  -0.001681   0.000537  -0.000197
     5  C   -0.000053   0.306832  -0.024744  -0.011791   0.014437  -0.001313
     6  C   -0.000306  -0.057382  -0.039839  -0.157013  -0.114228   0.000297
     7  H    0.000392  -0.000307   0.000070   0.000557   0.001123   0.000031
     8  H    0.007372  -0.000254   0.000005  -0.000001  -0.000003  -0.000000
     9  H    0.000003  -0.022931   0.000852   0.000012   0.000021  -0.000004
    10  H    0.000006  -0.027384   0.008879  -0.091368   0.007466   0.024144
    11  N    0.438875   0.000107  -0.000004   0.000022   0.000037  -0.000001
    12  O   -0.173996  -0.000000  -0.000000   0.000000  -0.000001  -0.000000
    13  O    8.172315  -0.000000  -0.000000  -0.000000  -0.000000  -0.000000
    14  C   -0.000000   5.143808   0.531604  -0.074765  -0.023211  -0.004468
    15  C   -0.000000   0.531604   5.224619   0.435053   0.017451  -0.023181
    16  C   -0.000000  -0.074765   0.435053   4.680925   0.405477   0.415140
    17  H   -0.000000  -0.023211   0.017451   0.405477   0.675813  -0.039101
    18  H   -0.000000  -0.004468  -0.023181   0.415140  -0.039101   0.591626
    19  H    0.000000   0.009174  -0.012404   0.349335   0.000347  -0.015236
    20  C    0.000000   0.412395  -0.074517   0.007123  -0.000229  -0.000228
    21  H    0.000000  -0.001367   0.008202  -0.000258  -0.000025   0.000050
    22  H   -0.000000  -0.012033  -0.005108  -0.000230   0.000053  -0.000031
    23  H    0.000000   0.001978  -0.027313   0.000087  -0.000030   0.000041
    24  S   -0.000000  -0.003569  -0.044297  -0.009490   0.000297   0.000991
    25  O   -0.000000   0.000072   0.003156  -0.000055   0.000002  -0.000004
    26  O   -0.000000   0.003774  -0.003207  -0.000427  -0.000008   0.000335
    27  C    0.000000   0.001119   0.012097   0.010087  -0.000420   0.004298
    28  F   -0.000000  -0.000113  -0.001527  -0.001122   0.000039  -0.000641
    29  F    0.000000  -0.000006  -0.000095  -0.000088   0.000003   0.000001
    30  F    0.000000   0.000102  -0.003758  -0.038935   0.002153  -0.036862
    31  O   -0.000000  -0.074941   0.122753  -0.059045   0.004368   0.001845
              19         20         21         22         23         24
     1  C   -0.000488  -0.000142   0.000035   0.000006   0.000001  -0.000005
     2  C    0.000018  -0.000023  -0.000095   0.000003   0.000003   0.000000
     3  C   -0.000001   0.000910   0.001566  -0.000035  -0.000036  -0.000001
     4  C    0.000081  -0.008756   0.005249   0.001681   0.000273   0.000024
     5  C    0.001137  -0.054918  -0.020753  -0.001220   0.007263  -0.000106
     6  C    0.006691   0.008114  -0.000625  -0.000338  -0.000010   0.000001
     7  H   -0.000022   0.000002   0.000000  -0.000000  -0.000000   0.000000
     8  H   -0.000000  -0.000008   0.000037  -0.000001  -0.000000  -0.000000
     9  H   -0.000001   0.006403  -0.000054   0.000636   0.000014   0.000002
    10  H   -0.000977  -0.000176   0.000018  -0.000012   0.000023  -0.000147
    11  N   -0.000000  -0.000000  -0.000000  -0.000000  -0.000000  -0.000000
    12  O    0.000000   0.000000   0.000000  -0.000000   0.000000  -0.000000
    13  O    0.000000   0.000000   0.000000  -0.000000   0.000000  -0.000000
    14  C    0.009174   0.412395  -0.001367  -0.012033   0.001978  -0.003569
    15  C   -0.012404  -0.074517   0.008202  -0.005108  -0.027313  -0.044297
    16  C    0.349335   0.007123  -0.000258  -0.000230   0.000087  -0.009490
    17  H    0.000347  -0.000229  -0.000025   0.000053  -0.000030   0.000297
    18  H   -0.015236  -0.000228   0.000050  -0.000031   0.000041   0.000991
    19  H    0.620360  -0.000255   0.000001   0.000034  -0.000006  -0.001704
    20  C   -0.000255   4.464173   0.380427   0.387710   0.401527  -0.002758
    21  H    0.000001   0.380427   0.612154  -0.020948  -0.014509   0.000021
    22  H    0.000034   0.387710  -0.020948   0.596366  -0.009697  -0.000104
    23  H   -0.000006   0.401527  -0.014509  -0.009697   0.559933  -0.002969
    24  S   -0.001704  -0.002758   0.000021  -0.000104  -0.002969  13.835924
    25  O    0.000026  -0.000095   0.000001   0.000016  -0.000517   0.573735
    26  O    0.000043  -0.015660   0.000518   0.000704  -0.002783   0.516965
    27  C    0.003038  -0.000046  -0.000009   0.000005   0.000218   0.282843
    28  F   -0.000308   0.000003   0.000000  -0.000000  -0.000008  -0.054124
    29  F    0.000014   0.000000   0.000000  -0.000000  -0.000007  -0.052885
    30  F   -0.000611   0.000016   0.000001  -0.000002  -0.000015  -0.045560
    31  O   -0.005556   0.001227   0.000409   0.001068   0.009167   0.249335
              25         26         27         28         29         30
     1  C   -0.000000   0.000001   0.000000  -0.000000  -0.000000  -0.000002
     2  C    0.000000  -0.000000  -0.000000  -0.000000  -0.000000  -0.000000
     3  C   -0.000000   0.000000   0.000000  -0.000000   0.000000  -0.000000
     4  C   -0.000000  -0.000027  -0.000003   0.000000   0.000000  -0.000002
     5  C   -0.000001  -0.000292  -0.000010   0.000001  -0.000000   0.000087
     6  C   -0.000000  -0.000003   0.000078  -0.000004   0.000000  -0.000098
     7  H    0.000000   0.000000  -0.000000   0.000000   0.000000   0.000000
     8  H   -0.000000   0.000000   0.000000  -0.000000   0.000000   0.000000
     9  H    0.000000  -0.000002  -0.000000  -0.000000   0.000000  -0.000000
    10  H   -0.000001  -0.000013   0.000111  -0.000003  -0.000001  -0.001061
    11  N   -0.000000  -0.000000  -0.000000   0.000000  -0.000000   0.000000
    12  O   -0.000000   0.000000   0.000000  -0.000000   0.000000  -0.000000
    13  O   -0.000000  -0.000000   0.000000  -0.000000   0.000000   0.000000
    14  C    0.000072   0.003774   0.001119  -0.000113  -0.000006   0.000102
    15  C    0.003156  -0.003207   0.012097  -0.001527  -0.000095  -0.003758
    16  C   -0.000055  -0.000427   0.010087  -0.001122  -0.000088  -0.038935
    17  H    0.000002  -0.000008  -0.000420   0.000039   0.000003   0.002153
    18  H   -0.000004   0.000335   0.004298  -0.000641   0.000001  -0.036862
    19  H    0.000026   0.000043   0.003038  -0.000308   0.000014  -0.000611
    20  C   -0.000095  -0.015660  -0.000046   0.000003   0.000000   0.000016
    21  H    0.000001   0.000518  -0.000009   0.000000   0.000000   0.000001
    22  H    0.000016   0.000704   0.000005  -0.000000  -0.000000  -0.000002
    23  H   -0.000517  -0.002783   0.000218  -0.000008  -0.000007  -0.000015
    24  S    0.573735   0.516965   0.282843  -0.054124  -0.052885  -0.045560
    25  O    7.971896  -0.073047  -0.029618   0.000375   0.000237   0.001528
    26  O   -0.073047   8.069528  -0.023648   0.001179  -0.000111  -0.000079
    27  C   -0.029618  -0.023648   4.275619   0.263096   0.292093   0.220408
    28  F    0.000375   0.001179   0.263096   9.116588  -0.065727  -0.062448
    29  F    0.000237  -0.000111   0.292093  -0.065727   9.080363  -0.062195
    30  F    0.001528  -0.000079   0.220408  -0.062448  -0.062195   9.236456
    31  O   -0.031916  -0.041356  -0.018832   0.001872   0.000661   0.000729
              31
     1  C    0.000016
     2  C   -0.000000
     3  C    0.000001
     4  C   -0.000139
     5  C    0.007555
     6  C   -0.000798
     7  H    0.000000
     8  H   -0.000000
     9  H   -0.000004
    10  H    0.000184
    11  N   -0.000000
    12  O   -0.000000
    13  O   -0.000000
    14  C   -0.074941
    15  C    0.122753
    16  C   -0.059045
    17  H    0.004368
    18  H    0.001845
    19  H   -0.005556
    20  C    0.001227
    21  H    0.000409
    22  H    0.001068
    23  H    0.009167
    24  S    0.249335
    25  O   -0.031916
    26  O   -0.041356
    27  C   -0.018832
    28  F    0.001872
    29  F    0.000661
    30  F    0.000729
    31  O    8.168776
 Mulliken charges:
               1
     1  C   -0.007412
     2  C    0.117048
     3  C    0.002081
     4  C   -0.052101
     5  C    0.070437
     6  C   -0.017957
     7  H    0.041569
     8  H    0.048510
     9  H    0.020053
    10  H   -0.037726
    11  N    0.360616
    12  O   -0.321205
    13  O   -0.320418
    14  C   -0.048131
    15  C   -0.121529
    16  C    0.136726
    17  H    0.044098
    18  H    0.081227
    19  H    0.047269
    20  C    0.087781
    21  H    0.049954
    22  H    0.061477
    23  H    0.077370
    24  S    0.757580
    25  O   -0.415789
    26  O   -0.432382
    27  C    0.707474
    28  F   -0.197127
    29  F   -0.192260
    30  F   -0.209853
    31  O   -0.337380
 Sum of Mulliken charges =  -0.00000
 Mulliken charges with hydrogens summed into heavy atoms:
               1
     1  C    0.034157
     2  C    0.117048
     3  C    0.050591
     4  C   -0.032048
     5  C    0.070437
     6  C   -0.055683
    11  N    0.360616
    12  O   -0.321205
    13  O   -0.320418
    14  C   -0.048131
    15  C   -0.121529
    16  C    0.309320
    20  C    0.276582
    24  S    0.757580
    25  O   -0.415789
    26  O   -0.432382
    27  C    0.707474
    28  F   -0.197127
    29  F   -0.192260
    30  F   -0.209853
    31  O   -0.337380
 Electronic spatial extent (au):  <R**2>=           8548.1890
 Charge=             -0.0000 electrons
 Dipole moment (field-independent basis, Debye):
    X=              1.5515    Y=             -0.5353    Z=              1.8779  Tot=              2.4941
 Quadrupole moment (field-independent basis, Debye-Ang):
   XX=           -179.6748   YY=           -120.2350   ZZ=           -128.0877
   XY=            -17.0421   XZ=             -1.9516   YZ=             -1.4020
 Traceless Quadrupole moment (field-independent basis, Debye-Ang):
   XX=            -37.0090   YY=             22.4308   ZZ=             14.5781
   XY=            -17.0421   XZ=             -1.9516   YZ=             -1.4020
 Octapole moment (field-independent basis, Debye-Ang**2):
  XXX=            270.9252  YYY=            -12.4665  ZZZ=            -12.2812  XYY=             20.5159
  XXY=              7.2605  XXZ=             15.8704  XZZ=             15.8553  YZZ=            -17.5624
  YYZ=             -4.1506  XYZ=              8.9218
 Hexadecapole moment (field-independent basis, Debye-Ang**3):
 XXXX=         -10889.8072 YYYY=          -1284.2564 ZZZZ=           -535.8954 XXXY=           -467.2701
 XXXZ=           -213.9971 YYYX=           -100.9564 YYYZ=              5.7677 ZZZX=             -8.9268
 ZZZY=              9.7873 XXYY=          -1719.4696 XXZZ=          -1519.4819 YYZZ=           -308.7668
 XXYZ=              5.5314 YYXZ=              7.1680 ZZXY=            -17.7325
 N-N= 1.967282626154D+03 E-N=-7.587951331815D+03  KE= 1.545215290473D+03
 Calling FoFJK, ICntrl=      2127 FMM=F ISym2X=0 I1Cent= 0 IOpClX= 0 NMat=1 NMatS=1 NMatT=0.
 ***** Axes restored to original set *****
 -------------------------------------------------------------------
 Center     Atomic                   Forces (Hartrees/Bohr)
 Number     Number              X              Y              Z
 -------------------------------------------------------------------
      1        6           0.013521905   -0.001133244    0.014686115
      2        6           0.015536173   -0.000495503   -0.011012101
      3        6           0.001161035    0.000146440   -0.014732970
      4        6          -0.025391624   -0.000586198   -0.005641815
      5        6           0.033322007   -0.002309983   -0.023778559
      6        6          -0.042832959    0.011983617    0.068204659
      7        1          -0.014166393    0.000284559   -0.005611753
      8        1          -0.001994277   -0.000014274    0.014833339
      9        1           0.009768925   -0.000648334    0.008733669
     10        1          -0.065582547    0.054304472    0.076314764
     11        7          -0.009762469    0.000258278    0.006622863
     12        8          -0.011454040   -0.000051909   -0.037126803
     13        8           0.026175344   -0.000057532    0.028368234
     14        6           0.004690209    0.001290739    0.008569129
     15        6          -0.033914283   -0.007975683    0.018094071
     16        6           0.070622933   -0.019910329   -0.038812284
     17        1           0.056346097   -0.063978528   -0.075214200
     18        1          -0.018461183   -0.001649778    0.001946048
     19        1           0.005699949   -0.006428223   -0.022149926
     20        6          -0.035060470    0.000517648   -0.016839780
     21        1           0.001952784    0.009562569    0.015368392
     22        1           0.005838051   -0.020033106    0.005545597
     23        1           0.011981826    0.005442123   -0.004363310
     24       16           0.139973503   -0.005018511    0.068604641
     25        8          -0.068382626   -0.015533055    0.003473120
     26        8          -0.039585224   -0.020462436   -0.047093236
     27        6          -0.034874721    0.022552578   -0.034092323
     28        9           0.000710655    0.013024469    0.023430331
     29        9          -0.007927074   -0.033981497    0.007874376
     30        9           0.030245443    0.029333075   -0.019387679
     31        8          -0.018156948    0.051567559   -0.014812610
 -------------------------------------------------------------------
 Cartesian Forces:  Max     0.139973503 RMS     0.032025141

 GradGradGradGradGradGradGradGradGradGradGradGradGradGradGradGradGradGrad
 Berny optimization.
 FormGI is forming the generalized inverse of G from B-inverse, IUseBI=4.
 Internal  Forces:  Max     0.520946013 RMS     0.083192307
 Search for a local minimum.
 Step number   1 out of a maximum of  155
 All quantities printed in internal units (Hartrees-Bohrs-Radians)
 Mixed Optimization -- RFO/linear search
 Second derivative matrix not updated -- first step.
 ITU=  0
     Eigenvalues ---    0.00237   0.00237   0.00237   0.00635   0.00766
     Eigenvalues ---    0.00766   0.00935   0.01228   0.01295   0.01498
     Eigenvalues ---    0.01680   0.01693   0.02070   0.02070   0.02070
     Eigenvalues ---    0.02070   0.02070   0.02070   0.02070   0.02681
     Eigenvalues ---    0.07243   0.07243   0.07243   0.07243   0.08130
     Eigenvalues ---    0.08789   0.09110   0.09110   0.16000   0.16000
     Eigenvalues ---    0.16000   0.16000   0.16000   0.16000   0.16000
     Eigenvalues ---    0.16000   0.16000   0.16000   0.17310   0.21379
     Eigenvalues ---    0.22000   0.22981   0.24000   0.25000   0.25000
     Eigenvalues ---    0.25000   0.25000   0.25000   0.25000   0.25000
     Eigenvalues ---    0.25000   0.25000   0.25000   0.25000   0.25000
     Eigenvalues ---    0.25000   0.27758   0.28519   0.28519   0.28519
     Eigenvalues ---    0.35740   0.37230   0.37230   0.37230   0.37230
     Eigenvalues ---    0.37230   0.37230   0.37230   0.37230   0.37230
     Eigenvalues ---    0.37230   0.39757   0.40989   0.41268   0.41640
     Eigenvalues ---    0.45389   0.45389   0.45389   0.45389   0.53930
     Eigenvalues ---    0.55021   0.55021   0.55021   0.87694   0.87694
     Eigenvalues ---    1.06448   1.06448
 RFO step:  Lambda=-8.88883483D-01 EMin= 2.36824211D-03
 Linear search not attempted -- first point.
 Maximum step size (   0.300) exceeded in Quadratic search.
    -- Step size scaled by   0.355
 Iteration  1 RMS(Cart)=  0.24717323 RMS(Int)=  0.01158219
 Iteration  2 RMS(Cart)=  0.08751210 RMS(Int)=  0.00122760
 Iteration  3 RMS(Cart)=  0.00284738 RMS(Int)=  0.00011004
 Iteration  4 RMS(Cart)=  0.00000176 RMS(Int)=  0.00011004
 Iteration  5 RMS(Cart)=  0.00000000 RMS(Int)=  0.00011004
 Variable       Old X    -DE/DX   Delta X   Delta X   Delta X     New X
                                 (Linear)    (Quad)   (Total)
    R1        2.64826  -0.03842   0.00000  -0.01037  -0.01041   2.63785
    R2        2.64826  -0.00059   0.00000  -0.00007  -0.00008   2.64819
    R3        2.02201   0.01507   0.00000   0.00425   0.00425   2.02625
    R4        2.64826  -0.04390   0.00000  -0.01191  -0.01195   2.63632
    R5        2.77790  -0.00536   0.00000  -0.00153  -0.00153   2.77637
    R6        2.64826  -0.01787   0.00000  -0.00481  -0.00481   2.64345
    R7        2.02201   0.01483   0.00000   0.00418   0.00418   2.02619
    R8        2.64826   0.02846   0.00000   0.00774   0.00778   2.65604
    R9        2.02201   0.01283   0.00000   0.00361   0.00361   2.02562
   R10        2.64826   0.05038   0.00000   0.01362   0.01366   2.66192
   R11        2.91018   0.12202   0.00000   0.03692   0.03692   2.94710
   R12        2.02201  -0.07631   0.00000  -0.02150  -0.02150   2.00051
   R13        2.26162   0.02848   0.00000   0.00518   0.00518   2.26680
   R14        2.26162   0.02837   0.00000   0.00516   0.00516   2.26678
   R15        2.56096   0.12814   0.00000   0.03188   0.03188   2.59283
   R16        2.91018  -0.01338   0.00000  -0.00405  -0.00405   2.90613
   R17        2.91018  -0.03180   0.00000  -0.00962  -0.00962   2.90056
   R18        2.70231   0.00773   0.00000   0.00211   0.00211   2.70442
   R19        2.02201  -0.04976   0.00000  -0.01402  -0.01402   2.00799
   R20        2.02201   0.00345   0.00000   0.00097   0.00097   2.02298
   R21        2.02201   0.02307   0.00000   0.00650   0.00650   2.02850
   R22        2.02201   0.01771   0.00000   0.00499   0.00499   2.02699
   R23        2.02201   0.02149   0.00000   0.00605   0.00605   2.02806
   R24        2.02201   0.01328   0.00000   0.00374   0.00374   2.02575
   R25        2.77714  -0.06096   0.00000  -0.01226  -0.01226   2.76488
   R26        2.77714  -0.05553   0.00000  -0.01117  -0.01117   2.76597
   R27        3.36371   0.03483   0.00000   0.01061   0.01061   3.37432
   R28        3.15584  -0.00416   0.00000  -0.00115  -0.00115   3.15469
   R29        2.55113  -0.02670   0.00000  -0.00659  -0.00659   2.54454
   R30        2.55113  -0.03564   0.00000  -0.00880  -0.00880   2.54233
   R31        2.55113  -0.03589   0.00000  -0.00886  -0.00886   2.54227
    A1        2.09440   0.01728   0.00000   0.00523   0.00518   2.09958
    A2        2.09440  -0.01089   0.00000  -0.00338  -0.00335   2.09104
    A3        2.09440  -0.00639   0.00000  -0.00185  -0.00183   2.09256
    A4        2.09440  -0.00840   0.00000  -0.00338  -0.00346   2.09094
    A5        2.09440   0.00479   0.00000   0.00187   0.00191   2.09631
    A6        2.09440   0.00361   0.00000   0.00150   0.00154   2.09594
    A7        2.09440  -0.00260   0.00000  -0.00146  -0.00149   2.09291
    A8        2.09440  -0.00072   0.00000   0.00005   0.00006   2.09446
    A9        2.09440   0.00332   0.00000   0.00141   0.00143   2.09582
   A10        2.09440   0.06418   0.00000   0.02056   0.02060   2.11500
   A11        2.09440  -0.03480   0.00000  -0.01120  -0.01122   2.08317
   A12        2.09440  -0.02938   0.00000  -0.00936  -0.00938   2.08501
   A13        2.09440  -0.10125   0.00000  -0.03113  -0.03106   2.06334
   A14        2.09440  -0.24685   0.00000  -0.07723  -0.07728   2.01712
   A15        2.09440   0.34810   0.00000   0.10836   0.10831   2.20270
   A16        2.09440   0.03079   0.00000   0.01018   0.01020   2.10460
   A17        2.09440  -0.08170   0.00000  -0.02755  -0.02757   2.06682
   A18        2.09440   0.05091   0.00000   0.01737   0.01734   2.11174
   A19        2.09440  -0.02011   0.00000  -0.00627  -0.00627   2.08812
   A20        2.09440  -0.01954   0.00000  -0.00610  -0.00610   2.08830
   A21        2.09440   0.03965   0.00000   0.01237   0.01237   2.10677
   A22        2.09440   0.52095   0.00000   0.16251   0.16250   2.25690
   A23        2.09440  -0.27176   0.00000  -0.08477  -0.08478   2.00962
   A24        2.09440  -0.24918   0.00000  -0.07773  -0.07773   2.01666
   A25        2.09440   0.36855   0.00000   0.11497   0.11493   2.20933
   A26        2.09440  -0.19084   0.00000  -0.05953  -0.05956   2.03484
   A27        2.09440  -0.17771   0.00000  -0.05544  -0.05546   2.03893
   A28        1.91063   0.00441   0.00000   0.00146   0.00138   1.91202
   A29        1.91063   0.03822   0.00000   0.01351   0.01347   1.92410
   A30        1.91063  -0.02365   0.00000  -0.00854  -0.00856   1.90208
   A31        1.91063   0.02165   0.00000   0.00839   0.00829   1.91893
   A32        1.91063  -0.03595   0.00000  -0.01330  -0.01336   1.89728
   A33        1.91063  -0.00468   0.00000  -0.00152  -0.00150   1.90913
   A34        1.91063   0.00413   0.00000   0.00139   0.00139   1.91203
   A35        1.91063  -0.00059   0.00000  -0.00020  -0.00020   1.91043
   A36        1.91063   0.00495   0.00000   0.00168   0.00168   1.91231
   A37        1.91063  -0.00221   0.00000  -0.00076  -0.00076   1.90988
   A38        1.91063  -0.00444   0.00000  -0.00150  -0.00150   1.90913
   A39        1.91063  -0.00183   0.00000  -0.00061  -0.00061   1.91002
   A40        1.91063   0.04285   0.00000   0.01388   0.01380   1.92444
   A41        1.91063  -0.03945   0.00000  -0.01287  -0.01284   1.89779
   A42        1.91063  -0.03621   0.00000  -0.01184  -0.01175   1.89889
   A43        1.91063  -0.03913   0.00000  -0.01211  -0.01215   1.89848
   A44        1.91063  -0.00417   0.00000  -0.00054  -0.00049   1.91014
   A45        1.91063   0.07610   0.00000   0.02349   0.02355   1.93418
   A46        1.91063   0.00396   0.00000   0.00142   0.00141   1.91204
   A47        1.91063  -0.01541   0.00000  -0.00508  -0.00507   1.90556
   A48        1.91063   0.03067   0.00000   0.00965   0.00964   1.92028
   A49        1.91063   0.00165   0.00000   0.00035   0.00035   1.91098
   A50        1.91063  -0.00391   0.00000  -0.00068  -0.00071   1.90993
   A51        1.91063  -0.01696   0.00000  -0.00567  -0.00565   1.90498
   A52        1.91063   0.18448   0.00000   0.05755   0.05755   1.96818
    D1        0.00000   0.00515   0.00000   0.00202   0.00197   0.00197
    D2        3.14159   0.00026   0.00000   0.00010   0.00005  -3.14154
    D3        3.14159   0.01096   0.00000   0.00429   0.00431  -3.13728
    D4        0.00000   0.00607   0.00000   0.00237   0.00239   0.00239
    D5       -0.00000   0.00317   0.00000   0.00125   0.00136   0.00136
    D6        3.14159   0.02499   0.00000   0.00976   0.00983  -3.13176
    D7        3.14159  -0.00264   0.00000  -0.00103  -0.00098   3.14061
    D8       -0.00000   0.01918   0.00000   0.00749   0.00749   0.00749
    D9       -0.00000  -0.00334   0.00000  -0.00131  -0.00136  -0.00136
   D10        3.14159  -0.00477   0.00000  -0.00187  -0.00186   3.13974
   D11        3.14159   0.00155   0.00000   0.00061   0.00056  -3.14103
   D12        0.00000   0.00012   0.00000   0.00005   0.00007   0.00007
   D13       -0.00000   0.00250   0.00000   0.00098   0.00099   0.00099
   D14        3.14159   0.00239   0.00000   0.00094   0.00094  -3.14065
   D15        3.14159  -0.00239   0.00000  -0.00094  -0.00094   3.14065
   D16        0.00000  -0.00250   0.00000  -0.00098  -0.00099  -0.00099
   D17        0.00000  -0.00679   0.00000  -0.00266  -0.00261  -0.00261
   D18        3.14159  -0.00074   0.00000  -0.00030  -0.00018   3.14141
   D19        3.14159  -0.00536   0.00000  -0.00210  -0.00211   3.13948
   D20       -0.00000   0.00069   0.00000   0.00027   0.00032   0.00032
   D21       -0.00000   0.01511   0.00000   0.00592   0.00581   0.00581
   D22        3.14159  -0.00420   0.00000  -0.00166  -0.00125   3.14034
   D23        3.14159   0.00906   0.00000   0.00356   0.00338  -3.13821
   D24        0.00000  -0.01025   0.00000  -0.00403  -0.00369  -0.00369
   D25        0.00000  -0.01330   0.00000  -0.00522  -0.00517  -0.00517
   D26        3.14159  -0.03511   0.00000  -0.01374  -0.01386   3.12773
   D27        3.14159   0.00601   0.00000   0.00237   0.00273  -3.13886
   D28       -0.00000  -0.01581   0.00000  -0.00615  -0.00596  -0.00596
   D29        3.14159  -0.04961   0.00000  -0.01984  -0.01970   3.12189
   D30       -0.00000  -0.05573   0.00000  -0.02226  -0.02227  -0.02227
   D31        0.00000  -0.06891   0.00000  -0.02743  -0.02742  -0.02742
   D32        3.14159  -0.07504   0.00000  -0.02985  -0.02998   3.11161
   D33        0.00000  -0.10263   0.00000  -0.03996  -0.04014  -0.04014
   D34        3.14159  -0.06540   0.00000  -0.02528  -0.02525   3.11634
   D35        3.14159  -0.09650   0.00000  -0.03753  -0.03757   3.10403
   D36       -0.00000  -0.05927   0.00000  -0.02286  -0.02268  -0.02268
   D37       -0.52360   0.00196   0.00000   0.00076   0.00065  -0.52295
   D38        1.57080   0.00142   0.00000   0.00056   0.00045   1.57125
   D39       -2.61799   0.00184   0.00000   0.00072   0.00061  -2.61739
   D40        2.61799  -0.00417   0.00000  -0.00166  -0.00155   2.61645
   D41       -1.57080  -0.00471   0.00000  -0.00186  -0.00175  -1.57254
   D42        0.52360  -0.00429   0.00000  -0.00170  -0.00159   0.52201
   D43       -0.52360  -0.05516   0.00000  -0.02102  -0.02091  -0.54451
   D44        1.57080  -0.00254   0.00000  -0.00157  -0.00140   1.56939
   D45       -2.61799   0.00066   0.00000  -0.00039  -0.00030  -2.61829
   D46        2.61799  -0.09239   0.00000  -0.03570  -0.03583   2.58216
[...]
 9394,0.00020836,0.00003964,-0.00025996,0.00022655,-0.00004309,0.000173
 68,0.00030435,-0.00010154,-0.00015454,0.00001787,0.00023280,-0.0000944
 9,-0.00073888,0.00110026,-0.00036600,-0.00027646,0.00007141,0.00055757
 ,0.00070737,0.00011127,-0.00028611,0.00063667,-0.00098909,0.00015092,-
 0.13156320,-0.00884847,-0.12901295,0.13624176,0.01017391,0.08843801,0.
 00012251,-0.00016578,0.00012220,-0.00009605,0.00001307,0.00005012,0.00
 006201,-0.00009899,0.00011491,-0.00010466,0.00004193,0.00009041,0.0002
 0293,-0.00036534,0.00001000,0.00005579,0.00051389,-0.00052495,0.000054
 39,0.00002197,-0.00004669,-0.00001029,0.00000928,-0.00001244,-0.000001
 48,-0.00004692,0.00001118,0.00045897,0.00012853,-0.00025633,0.00029779
 ,0.00015633,-0.00032640,-0.00012068,-0.00006045,0.00011822,-0.00013974
 ,-0.00016754,0.00023753,0.00073029,-0.00171634,-0.00174748,-0.00343039
 ,-0.00178474,0.00348545,0.00086284,0.00083087,-0.00071880,0.00037765,-
 0.00023460,0.00020029,0.00061415,0.00049737,0.00071563,-0.00014634,-0.
 00043635,0.00003599,-0.00084474,0.00068516,-0.00024884,-0.00032164,0.0
 0030003,-0.00028015,0.00023696,-0.00011220,-0.00007896,0.00007704,-0.0
 0044303,0.00033459,-0.35907958,0.26266106,0.14347819,-0.01489639,0.030
 59515,0.01670987,0.36068696,-0.00006153,0.00019841,-0.00025416,-0.0003
 9524,-0.00005655,0.00024611,0.00022563,-0.00004579,0.00000962,-0.00065
 184,0.00003813,0.00040676,0.00118219,-0.00010511,-0.00022210,-0.000320
 86,-0.00036562,0.00068768,-0.00005426,-0.00006517,0.00005031,-0.000044
 03,-0.00000777,-0.00000638,0.00002481,0.00006431,-0.00012277,-0.000175
 46,-0.00023577,-0.00000286,0.00076130,-0.00003449,-0.00040101,-0.00041
 504,0.00015638,0.00010643,-0.00022631,-0.00003906,0.00017924,-0.002167
 14,-0.00110752,0.00037665,0.01305691,0.00288321,-0.00826265,-0.0009192
 9,-0.00057797,0.00130331,-0.00049953,-0.00000881,-0.00025291,-0.000068
 47,-0.00027553,-0.00015997,0.00031164,0.00030036,0.00017625,-0.0002291
 5,-0.00014725,-0.00010035,0.00025436,0.00003647,0.00062410,0.00014048,
 0.00021358,0.00019008,-0.00028872,-0.00021624,-0.00032619,0.26677737,-
 0.34687380,-0.14450315,-0.00828917,0.01113818,-0.00423075,-0.29196516,
 0.37138666,-0.00007079,0.00003999,-0.00002419,0.00015515,-0.00000889,-
 0.00011014,-0.00008081,0.00005166,-0.00002565,0.00014495,0.00004197,-0
 .00015255,-0.00029191,0.00033656,0.00033593,0.00004952,-0.00019436,0.0
 0027321,-0.00003348,-0.00000716,-0.00000655,0.00000076,-0.00001345,0.0
 0000654,-0.00000969,-0.00005714,0.00001916,-0.00033571,-0.00008966,0.0
 0000548,-0.00044574,-0.00007686,0.00029643,0.00023422,-0.00000839,-0.0
 0008724,0.00017103,0.00010983,-0.00017799,-0.00136262,0.00095204,0.000
 97626,0.00098453,0.00213995,-0.00272126,-0.00073537,-0.00031659,0.0001
 6187,0.00002291,-0.00010084,0.00007382,0.00039592,-0.00032837,-0.00025
 946,0.00022013,0.00028006,-0.00000018,0.00051717,-0.00004119,-0.000713
 80,0.00024069,0.00010496,0.00105600,0.00010526,0.00047510,0.00010355,0
 .00015813,-0.00039878,0.00001368,0.14734445,-0.14949454,-0.18028131,-0
 .00883023,0.00271761,0.02339143,-0.15781656,0.16145512,0.14456205,-0.0
 0013310,-0.00002499,-0.00002165,0.00004917,0.00004428,-0.00003309,-0.0
 0001623,0.00003586,-0.00006697,0.00003159,-0.00008216,0.00001678,-0.00
 000574,0.00019373,0.00011946,-0.00008868,-0.00022982,-0.00000940,-0.00
 002655,0.00000877,0.00007180,0.00000929,-0.00000635,0.00001963,0.00001
 084,0.00003396,0.00000994,0.00007005,0.00016753,0.00018665,-0.00021581
 ,-0.00016984,0.00033864,0.00005898,0.00005096,-0.00013178,0.00010280,0
 .00015271,-0.00022872,-0.00185124,-0.00021207,0.00038850,0.00658158,0.
 00058604,0.00261724,0.00141842,-0.00040639,-0.00002754,-0.00057924,0.0
 0052577,-0.00088701,-0.00230255,0.00054272,0.00122861,0.00003195,-0.00
 134879,0.00037335,0.00015000,-0.00022845,-0.00023417,-0.00016066,-0.00
 003042,-0.00014217,-0.00007577,-0.00003747,-0.00002899,-0.00011974,-0.
 00012471,-0.00007303,-0.02317140,0.00267683,-0.01785797,-0.01903072,-0
 .00163638,-0.02186786,-0.00829866,0.01009712,0.01887842,0.58624758,-0.
 00011680,-0.00007165,0.00001359,0.00000495,0.00006297,-0.00004469,0.00
 002929,-0.00002302,-0.00005367,0.00000083,-0.00005361,-0.00002262,-0.0
 0006646,0.00075032,0.00014684,-0.00002795,-0.00010883,-0.00001452,-0.0
 0000634,0.00002809,0.00000790,-0.00000168,0.00000822,0.00001822,0.0000
 1625,0.00001089,0.00005221,-0.00004450,0.00011634,0.00006625,-0.000213
 57,0.00008821,0.00008335,0.00013477,-0.00007288,-0.00003598,0.00007208
 ,-0.00003290,-0.00003639,-0.00159014,-0.00068084,0.00035605,0.00474828
 ,-0.00309021,0.00407611,0.00026396,0.00063583,0.00019016,-0.00008699,-
 0.00007380,-0.00034368,-0.00055206,0.00018784,0.00018571,-0.00038405,-
 0.00076872,0.00006609,-0.00013015,-0.00034193,-0.00012967,0.00003522,0
 .00000750,0.00001226,-0.00001139,0.00008327,0.00004687,0.00002039,0.00
 005740,-0.00003205,0.00248856,-0.02074653,-0.00564922,-0.00117742,0.00
 238773,-0.00199698,0.00807388,-0.00862599,-0.01921946,-0.00256467,0.59
 552528,0.00002324,0.00001106,-0.00023701,-0.00063307,-0.00003831,0.000
 40018,0.00031161,-0.00014267,0.00000041,-0.00071782,-0.00006171,0.0004
 3393,0.00117475,0.00044567,-0.00039066,-0.00062522,-0.00008038,0.00029
 905,0.00001863,-0.00002072,0.00004372,-0.00002708,0.00002407,-0.000009
 98,0.00006030,0.00012935,-0.00008068,0.00030570,-0.00000600,0.00004786
 ,0.00142571,0.00018591,-0.00088097,-0.00073551,0.00010949,0.00025053,-
 0.00049179,-0.00027187,0.00049243,-0.00239801,-0.00078355,0.00053639,0
 .01008101,0.00104325,-0.00315423,-0.00051296,-0.00011665,0.00089550,-0
 .00057199,-0.00006578,-0.00042328,0.00002534,0.00034361,0.00046653,0.0
 0013334,-0.00031436,0.00026776,-0.00008943,-0.00022669,0.00016188,0.00
 016896,0.00007981,-0.00032714,-0.00006508,-0.00016453,0.00030918,-0.00
 028238,0.00037402,-0.00045853,-0.01272293,0.00643136,-0.20113734,0.022
 21217,-0.00000446,0.01816664,-0.01223160,0.01082363,0.01741556,-0.0084
 5341,0.00108215,0.54505679,0.00002913,-0.00001319,-0.00001210,-0.00008
 050,-0.00000708,0.00004834,0.00004203,-0.00003146,0.00001824,-0.000089
 00,0.00000964,0.00004055,0.00011681,0.00003178,-0.00006533,-0.00005214
 ,0.00006166,0.00000066,0.00001148,0.00000123,-0.00001441,-0.00000593,0
 .00000621,-0.00000435,0.00000532,0.00000645,-0.00000394,0.00003911,-0.
 00002086,-0.00002893,0.00019165,0.00008449,-0.00018422,-0.00008056,-0.
 00001558,0.00006099,-0.00007614,-0.00008154,0.00011783,0.00011555,0.00
 000283,-0.00012325,-0.00018544,-0.00013996,-0.00049663,-0.00029826,0.0
 0020631,0.00009528,0.00007477,-0.00013006,0.00012979,0.00043848,-0.000
 07302,-0.00019797,-0.00000928,0.00017082,-0.00008832,-0.00007019,0.000
 04930,0.00013141,0.00004920,-0.00000459,-0.00005218,0.00001824,-0.0000
 3200,0.00003518,-0.00001431,0.00005530,-0.00000871,-0.00969146,0.01243
 402,-0.00107214,0.00658595,-0.00229939,0.00106597,0.00099824,-0.000038
 04,0.00422989,-0.15379944,0.10185717,0.06870952,0.21178611,-0.00000274
 ,0.00003504,0.00000393,0.00007361,-0.00000951,-0.00003740,-0.00004312,
 0.00003206,-0.00000354,0.00007217,0.00001344,-0.00003184,-0.00006851,-
 0.00015575,0.00006280,0.00006376,-0.00004046,0.00003459,-0.00001091,-0
 .00000915,0.00000633,0.00000372,-0.00000838,-0.00000121,-0.00000994,-0
 .00001444,-0.00000960,-0.00005908,-0.00002118,-0.00000129,-0.00013941,
 -0.00008768,0.00014052,0.00005454,0.00002652,-0.00004287,0.00005754,0.
 00007728,-0.00009272,0.00009714,0.00004948,0.00009873,-0.00058685,0.00
 072396,-0.00008012,0.00018813,-0.00032340,-0.00014507,-0.00001173,0.00
 011706,0.00001244,-0.00017849,-0.00000282,0.00003735,0.00017205,0.0000
 8650,-0.00002396,0.00004989,0.00003669,-0.00012842,-0.00003078,0.00001
 844,0.00013470,0.00001412,0.00004237,-0.00004006,0.00002669,-0.0001060
 0,0.00003465,0.01440580,-0.01686292,0.00018004,-0.00425902,0.00289666,
 -0.00080753,0.00033025,0.00006336,-0.00627194,0.10032276,-0.19984632,-
 0.08594614,-0.16040076,0.27850714,-0.00002275,0.00002098,0.00004981,0.
 00019431,0.00000734,-0.00012192,-0.00009869,0.00005539,-0.00001491,0.0
 0021986,0.00001684,-0.00012920,-0.00033007,-0.00003003,0.00015778,0.00
 017930,-0.00003684,-0.00001769,-0.00001540,-0.00000058,-0.00000399,0.0
 0000828,-0.00001099,0.00000369,-0.00001870,-0.00003924,0.00001899,-0.0
 0013571,-0.00001006,-0.00000959,-0.00045379,-0.00009675,0.00031309,0.0
 0022565,-0.00001263,-0.00009274,0.00016497,0.00011554,-0.00018524,0.00
 042064,0.00006145,0.00003355,-0.00241132,-0.00075741,0.00103392,0.0001
 9180,-0.00009476,-0.00022938,0.00011509,0.00006695,0.00007525,-0.00009
 482,-0.00010076,-0.00009986,0.00000813,0.00010611,-0.00005190,0.000037
 40,-0.00002407,-0.00017431,-0.00004691,0.00001974,0.00020787,0.0000264
 5,0.00009741,-0.00007913,0.00010688,-0.00014380,0.00011592,0.02434999,
 -0.03209403,0.00003562,-0.00566929,0.00287348,-0.00229814,0.00356621,-
 0.00379279,-0.01374525,0.06961277,-0.08907907,-0.14194418,-0.08699929,
 0.10588389,0.12284810,0.00002329,0.00000666,-0.00002314,-0.00006553,-0
 .00001319,0.00004192,0.00002878,-0.00001623,0.00001004,-0.00006674,0.0
 0001303,0.00003360,0.00011156,0.00004200,-0.00003599,-0.00004288,0.000
 02635,0.00004724,0.00000427,-0.00000579,-0.00000889,-0.00000439,0.0000
 0168,-0.00000549,0.00000230,0.00000211,-0.00001102,0.00000809,-0.00003
 402,-0.00002610,0.00016322,0.00003943,-0.00013381,-0.00007555,0.000005
 42,0.00004491,-0.00005954,-0.00004528,0.00008076,0.00000497,-0.0000544
 3,0.00000419,0.00001701,-0.00009954,-0.00037078,-0.00028215,0.00000475
 ,0.00010956,0.00006824,-0.00008172,0.00014253,0.00036124,-0.00011808,-
 0.00020917,0.00001173,0.00024966,-0.00006477,-0.00007058,0.00003918,0.
 00007488,0.00004031,0.00001343,0.00002697,0.00002989,-0.00000073,0.000
 02749,0.00000273,-0.00001841,-0.00001237,-0.00036382,-0.00586886,-0.00
 026640,0.00416766,0.00153766,0.00165526,0.00098536,-0.00001422,-0.0004
 4137,-0.09138499,-0.05966353,0.03034568,0.01401674,0.02374296,-0.00651
 591,0.11101064,0.00003257,0.00003431,-0.00011137,-0.00022150,-0.000039
 06,0.00014953,0.00008964,-0.00003543,0.00000465,-0.00023383,0.00001233
 ,0.00013395,0.00042837,0.00020620,-0.00010943,-0.00021693,-0.00003385,
 0.00021393,-0.00000070,-0.00002529,0.00000803,-0.00001108,0.00000193,-
 0.00001148,0.00001307,0.00002732,-0.00004405,0.00006048,-0.00007138,-0
 .00001252,0.00053323,0.00003081,-0.00032207,-0.00027733,0.00006633,0.0
 0009891,-0.00017820,-0.00007416,0.00017583,-0.00077559,-0.00020468,0.0
 0017177,0.00291210,0.00016328,-0.00075767,-0.00041578,-0.00020287,0.00
 026358,-0.00004350,-0.00006394,0.00010713,0.00035212,-0.00015084,-0.00
 016622,0.00013174,0.00032424,-0.00005309,-0.00007607,-0.00001189,0.000
 15073,0.00008006,0.00001439,0.00003117,0.00006398,-0.00001023,0.000080
 77,-0.00006613,-0.00004740,-0.00010166,-0.00824290,-0.02278530,-0.0012
 5659,0.00508855,0.00379212,0.00259308,-0.00234421,0.00713096,0.0036855
 4,-0.05934304,-0.26877504,0.10137018,0.01182706,-0.07886081,0.00551750
 ,0.09690883,0.38597261,-0.00000166,-0.00001578,0.00013743,0.00030169,0
 .00002616,-0.00019005,-0.00013819,0.00005873,0.00000868,0.00032726,0.0
 0001055,-0.00018514,-0.00055374,-0.00043094,0.00013330,0.00030399,0.00
 007735,-0.00024076,-0.00000101,0.00001850,-0.00001937,0.00001433,-0.00
 000766,0.00000716,-0.00002561,-0.00005011,0.00004086,-0.00009977,0.000
 02929,-0.00002060,-0.00066496,-0.00007508,0.00040866,0.00034141,-0.000
 06179,-0.00011849,0.00022419,0.00011601,-0.00022582,0.00148380,0.00057
 981,-0.00024233,-0.00554860,0.00015991,0.00021974,0.00026971,0.0001485
 0,-0.00039577,0.00019155,0.00003329,0.00008765,-0.00008018,-0.00004494
 ,-0.00001162,-0.00008955,-0.00002720,-0.00003984,0.00009307,0.00010848
 ,-0.00011007,-0.00010044,-0.00001114,0.00006351,-0.00004368,0.00002043
 ,-0.00013031,0.00013173,-0.00002896,0.00016086,0.01091833,0.03321566,0
 .00148911,-0.00548368,-0.00341944,-0.00341147,0.00137463,-0.00484170,-
 0.00290023,0.03182818,0.10597105,-0.13691024,-0.00373588,-0.01128785,0
 .02017399,-0.04052154,-0.12287562,0.11507556,0.00007463,0.00001163,0.0
 0001988,0.00002915,-0.00002656,-0.00001499,-0.00002017,-0.00000954,0.0
 0004408,0.00004260,0.00006279,-0.00004847,-0.00006859,-0.00008785,0.00
 000743,0.00009405,0.00013773,-0.00000219,0.00001177,-0.00000585,-0.000
 04523,-0.00000476,-0.00000028,-0.00001139,-0.00001384,-0.00004173,-0.0
 0000041,-0.00006605,-0.00010263,-0.00010899,-0.00000549,0.00007504,-0.
 00011272,0.00003335,-0.00003553,0.00005326,-0.00001274,-0.00005928,0.0
 0008614,0.00102483,0.00019338,-0.00022478,-0.00420930,-0.00005632,-0.0
 0034331,-0.00133853,0.00030427,0.00021467,0.00052493,-0.00045343,0.000
 69647,0.00067012,-0.00105266,0.00011810,-0.00002537,0.00087498,-0.0003
 6219,-0.00015308,0.00027314,0.00013438,0.00004982,0.00001851,0.0001766
 5,0.00013034,0.00003409,-0.00004047,0.00005648,-0.00019576,0.00015378,
 -0.03252024,-0.00798686,0.00684418,-0.00196931,-0.00018816,-0.00991854
 ,0.00875424,-0.00205736,-0.00359320,-0.28767797,-0.03877759,-0.0808238
 9,-0.07081571,0.02556745,0.00182893,-0.03877571,-0.04314611,0.00240102
 ,0.41812269,0.00003484,0.00002521,-0.00002345,-0.00001707,-0.00002292,
 0.00002256,-0.00000345,0.00000237,0.00001279,-0.00001529,0.00002600,0.
 00000194,0.00004897,-0.00006012,-0.00003057,-0.00000855,0.00001836,0.0
 0005856,0.00000022,-0.00000955,-0.00000441,-0.00000199,-0.00000117,-0.
 00000530,-0.00000354,-0.00000532,-0.00001323,-0.00000804,-0.00004965,-
 0.00002168,0.00008109,-0.00000426,-0.00005493,-0.00004150,0.00001509,0
 .00002014,-0.00002746,-0.00000667,0.00003024,0.00030924,0.00009103,-0.
 00007032,-0.00103481,0.00025094,-0.00093525,-0.00067943,-0.00025976,0.
 00024052,0.00014577,-0.00006058,0.00033155,0.00009954,-0.00049904,0.00
 009981,0.00006303,0.00056248,-0.00013667,-0.00000960,0.00006217,0.0000
 3925,0.00001266,0.00000923,0.00006038,0.00003854,0.00000729,-0.0000033
 8,-0.00000250,-0.00005398,0.00002484,-0.00597966,-0.00067076,0.0011168
 2,-0.00073132,0.00056882,-0.00171939,-0.00025850,0.00137890,0.00023032
 ,-0.03767895,-0.07952073,-0.01452522,0.03839787,0.00712081,0.00447682,
 -0.05673266,-0.02442477,-0.00465981,0.06063739,0.09210647,-0.00000186,
 -0.00000359,0.00005594,0.00015576,0.00000685,-0.00010180,-0.00007215,0
 .00003027,0.00000975,0.00016330,0.00002389,-0.00010511,-0.00026515,-0.
 00007180,0.00013618,0.00015910,0.00003309,-0.00006487,-0.00000452,0.00
 000430,-0.00002017,0.00000331,-0.00000679,0.00000068,-0.00001714,-0.00
 004388,0.00001994,-0.00009377,-0.00000815,-0.00002541,-0.00036390,-0.0
 0002449,0.00019339,0.00019700,-0.00003684,-0.00005044,0.00012351,0.000
 05278,-0.00010252,0.00052621,0.00016708,-0.00012420,-0.00254594,-0.000
 26719,0.00132519,0.00096116,-0.00006164,-0.00036676,0.00005654,0.00013
 338,0.00003737,0.00072419,0.00065400,-0.00114528,-0.00005862,0.0000969
 0,-0.00007022,-0.00005254,0.00012818,-0.00004232,-0.00004864,0.0000089
 9,0.00014449,0.00007428,0.00004920,-0.00008320,0.00005438,-0.00021588,
 0.00016511,-0.03577400,-0.00842502,0.00411686,-0.00725554,-0.00032036,
 -0.01192237,0.00459726,-0.00095302,-0.00278203,-0.08396987,-0.01542859
 ,-0.11191746,0.01738442,0.00005130,0.01725608,0.01472844,0.00472054,0.
 01760134,0.08571364,0.01578009,0.09065493,0.00008326,0.00013689,-0.000
 67770,-0.00116634,-0.00018237,0.00073294,0.00077686,-0.00058921,0.0003
 6059,-0.00278126,0.00061148,0.00161806,0.00653804,-0.00224468,0.000456
 32,-0.00113006,-0.00030899,0.00101239,-0.00002989,-0.00009118,0.000056
 40,-0.00020555,0.00000642,-0.00001579,0.00007800,0.00001269,-0.0001597
 9,0.00021338,-0.00031627,-0.00000413,0.00241081,0.00034555,-0.00159531
 ,-0.00118699,0.00021586,0.00046164,-0.00080296,-0.00047570,0.00089998,
 -0.02146617,-0.00364167,0.02084682,-0.15988094,-0.00338992,0.06205926,
 -0.04015004,-0.01388082,0.02591778,-0.00571649,-0.00074312,-0.00644915
 ,0.00176647,0.00121163,0.00090813,0.00232948,0.00068315,0.00124119,-0.
 00502961,0.00337373,-0.00413888,0.00209845,0.00023027,0.00083299,0.001
 23351,-0.00030360,-0.00048447,0.00253478,-0.00080624,-0.00177166,-0.08
 573389,-0.02960088,0.02701305,-0.02020551,-0.04116857,0.00608124,0.011
 91254,0.01604903,0.00019435,-0.00582378,-0.01233033,-0.01361378,0.0007
 4955,0.00055876,0.00155599,0.00013386,-0.00292892,0.00688361,0.0080578
 5,0.00336515,0.00490114,0.31039263,-0.00024406,0.00002725,-0.00089805,
 -0.00120010,-0.00009459,0.00072370,0.00033877,-0.00007563,-0.00060251,
 -0.00000330,-0.00023083,0.00012222,0.00163325,0.01135547,-0.00064600,-
 0.00218844,-0.00099931,0.00157595,-0.00008065,-0.00010054,0.00011117,0
 .00000865,0.00001456,-0.00003656,0.00013308,0.00011622,-0.00000101,-0.
 00006361,-0.00015655,0.00032190,0.00210906,0.00026386,-0.00127168,-0.0
 0101901,0.00023457,0.00035648,-0.00062723,-0.00034806,0.00068404,-0.01
 072137,0.00443971,0.01117912,0.00073522,-0.05243213,-0.00859318,-0.016
 97789,-0.00127640,0.01016497,-0.00469225,0.00122653,-0.00249357,-0.001
 19103,0.00002962,-0.00072952,0.00150514,0.00108608,0.00205715,0.000075
 42,-0.00631078,-0.00084430,-0.00068246,0.00012369,0.00036229,0.0012553
 9,0.00061406,0.00067842,0.00022382,-0.00089256,-0.00008096,-0.03732359
 ,-0.21600314,0.02957892,-0.00554353,-0.00764291,0.00541394,-0.00465864
 ,-0.03620048,0.00400691,-0.01131455,-0.01711687,-0.01968448,-0.0019146
 0,0.00650202,0.00700436,0.00013355,-0.00195991,0.00726431,0.00609311,0
 .00340408,0.00392637,0.08620183,0.31240293,0.00025602,-0.00014350,0.00
 048211,0.00096355,0.00003092,-0.00058589,-0.00059633,0.00081386,-0.000
 13613,0.00300249,-0.00023564,-0.00151198,-0.00615326,0.00130442,-0.003
 94769,0.00095176,0.00073921,-0.00057102,0.00005659,0.00005554,-0.00011
 144,0.00018791,-0.00003166,-0.00004809,-0.00014258,-0.00020348,0.00002
 136,-0.00016460,-0.00009819,-0.00013073,-0.00196738,-0.00023724,0.0011
 7330,0.00102048,-0.00020196,-0.00032722,0.00065893,0.00032831,-0.00064
 392,0.04703235,0.00621196,-0.03099409,0.05741303,-0.00611609,-0.092263
 45,-0.00557454,-0.00161943,0.00634673,-0.00100726,-0.00055895,0.000237
 86,0.00136771,-0.00010974,0.00033825,-0.00010506,0.00068909,0.00110239
 ,0.00130513,0.00242162,-0.00025797,-0.00042344,-0.00045863,-0.00027225
 ,0.00082270,-0.00070027,-0.00099658,0.00108885,-0.00005322,-0.00381155
 ,0.02382172,0.02604119,-0.07895711,0.00447723,0.00600083,0.01572944,-0
 .00096349,-0.00820250,0.01529686,0.00834366,0.01971177,0.01262734,0.00
 101957,-0.00172971,-0.00312624,0.00127329,0.00634492,-0.01045573,-0.00
 284183,-0.00034302,-0.00279310,-0.13512319,-0.04965041,0.17858653\\-0.
 00000069,0.00000054,-0.00000221,0.00000260,0.00000141,-0.00000294,0.00
 000098,0.00000115,0.00000120,0.00000272,0.00000277,0.00000028,-0.00000
 481,-0.00000298,0.00000714,0.00000172,0.00000253,-0.00000236,-0.000000
 78,-0.00000139,-0.00000155,-0.00000016,0.00000340,0.00000104,0.0000017
 0,0.00000311,0.00000117,0.00000039,-0.00000221,-0.00000332,0.00000644,
 0.00000421,-0.00000173,-0.00000429,-0.00000672,0.00000607,-0.00001118,
 0.00000561,0.00000038,0.00000498,0.00000440,-0.00001015,0.00000663,-0.
 00000275,-0.00000578,-0.00000146,-0.00000291,0.00000372,0.00000119,-0.
 00000061,0.00000154,-0.00000143,-0.00000428,-0.00000002,0.00000092,-0.
 00000268,0.00000124,-0.00000353,0.00000293,0.00000227,-0.00000247,0.00
 000226,-0.00000034,-0.00000059,0.00000235,0.00000190,0.00000071,0.0000
 0172,0.00000180,-0.00000520,-0.00000950,0.00000844,0.00000011,0.000000
 66,-0.00000521,0.00000021,0.00000312,-0.00000511,0.00000697,-0.0000030
 6,-0.00000410,0.00000121,-0.00000167,0.00000127,-0.00000170,-0.0000029
 7,0.00000054,-0.00000084,-0.00000312,-0.00000088,-0.00000035,0.0000046
 5,0.00000569\\\@
 The archive entry for this job was punched.


 IF YOU PERCEIVE THAT THERE ARE FOUR POSSIBLE WAYS IN
 WHICH A PROCEDURE CAN GO WRONG AND CIRCUMVENT THESE, 
 THEN A FIFTH WAY WILL DEVELOP.

                              -- MURPHY'S TWELFTH LAW
 Job cpu time:       0 days  5 hours 55 minutes 59.0 seconds.
 Elapsed time:       0 days  0 hours 22 minutes 21.7 seconds.
 File lengths (MBytes):  RWF=    826 Int=      0 D2E=      0 Chk=     23 Scr=      1
 Normal termination of Gaussian 16 at Fri Dec 31 11:35:01 2021.
