 Entering Gaussian System, Link 0=/software/g16/g16
 Input=endo-dcpd.com
 Output=endo-dcpd.log
 Initial command:
 /software/g16/l1.exe "/scratch/Gau-970626.inp" -scrdir="/scratch/"
 Default CPUs for threads: 0-15
 Default is to use a total of  16 processors:
                               16 via shared-memory
                                1 via Linda
 Entering Link 1 = /software/g16/l1.exe PID=    970627.
  
 Copyright (c) 1988-2019, Gaussian, Inc.  All Rights Reserved.
  
 This is part of the Gaussian(R) 16 program.  It is based on
 the Gaussian(R) 09 system (copyright 2009, Gaussian, Inc.),
 the Gaussian(R) 03 system (copyright 2003, Gaussian, Inc.),
 the Gaussian(R) 98 system (copyright 1998, Gaussian, Inc.),
 the Gaussian(R) 94 system (copyright 1995, Gaussian, Inc.),
 the Gaussian 92(TM) system (copyright 1992, Gaussian, Inc.),
 the Gaussian 90(TM) system (copyright 1990, Gaussian, Inc.),
 the Gaussian 88(TM) system (copyright 1988, Gaussian, Inc.),
 the Gaussian 86(TM) system (copyright 1986, Carnegie Mellon
 University), and the Gaussian 82(TM) system (copyright 1983,
 Carnegie Mellon University). Gaussian is a federally registered
 trademark of Gaussian, Inc.
  
 This software contains proprietary and confidential information,
 including trade secrets, belonging to Gaussian, Inc.
  
 This software is provided under written license and may be
 used, copied, transmitted, or stored only in accord with that
 written license.
  
 The following legend is applicable only to US Government
 contracts under FAR:
  
                    RESTRICTED RIGHTS LEGEND
  
 Use, reproduction and disclosure by the US Government is
 subject to restrictions as set forth in subparagraphs (a)
 and (c) of the Commercial Computer Software - Restricted
 Rights clause in FAR 52.227-19.
  
 Gaussian, Inc.
 340 Quinnipiac St., Bldg. 40, Wallingford CT 06492
  
  
 ---------------------------------------------------------------
 Warning -- This program may not be used in any manner that
 competes with the business of Gaussian, Inc. or will provide
 assistance to any competitor of Gaussian, Inc.  The licensee
 of this program is prohibited from giving any competitor of
 Gaussian, Inc. access to this program.  By using this program,
 the user acknowledges that Gaussian, Inc. is engaged in the
 business of creating and licensing software in the field of
 computational chemistry and represents and warrants to the
 licensee that it is not a competitor of Gaussian, Inc. and that
 it will not use this program in any manner prohibited above.
 ---------------------------------------------------------------
  

 Cite this work as:
 Gaussian 16, Revision C.01,
 M. J. Frisch, G. W. Trucks, H. B. Schlegel, G. E. Scuseria, 
 M. A. Robb, J. R. Cheeseman, G. Scalmani, V. Barone, 
 G. A. Petersson, H. Nakatsuji, X. Li, M. Caricato, A. V. Marenich, 
 J. Bloino, B. G. Janesko, R. Gomperts, B. Mennucci, H. P. Hratchian, 
 J. V. Ortiz, A. F. Izmaylov, J. L. Sonnenberg, D. Williams-Young, 
 F. Ding, F. Lipparini, F. Egidi, J. Goings, B. Peng, A. Petrone, 
 T. Henderson, D. Ranasinghe, V. G. Zakrzewski, J. Gao, N. Rega, 
 G. Zheng, W. Liang, M. Hada, M. Ehara, K. Toyota, R. Fukuda, 
 J. Hasegawa, M. Ishida, T. Nakajima, Y. Honda, O. Kitao, H. Nakai, 
 T. Vreven, K. Throssell, J. A. Montgomery, Jr., J. E. Peralta, 
 F. Ogliaro, M. J. Bearpark, J. J. Heyd, E. N. Brothers, K. N. Kudin, 
 V. N. Staroverov, T. A. Keith, R. Kobayashi, J. Normand, 
 K. Raghavachari, A. P. Rendell, J. C. Burant, S. S. Iyengar, 
 J. Tomasi, M. Cossi, J. M. Millam, M. Klene, C. Adamo, R. Cammi, 
 J. W. Ochterski, R. L. Martin, K. Morokuma, O. Farkas, 
 J. B. Foresman, and D. J. Fox, Gaussian, Inc., Wallingford CT, 2019.
 
 ******************************************
 Gaussian 16:  ES64L-G16RevC.01  3-Jul-2019
                27-Dec-2021 
 ******************************************
 SetSPE:  set environment variable "MP_BIND" = "yes"
 SetSPE:  set environment variable "MP_BLIST" = "0,1,2,3,4,5,6,7,8,9,10,11,12,13,14,15"
 ----------------------------------------------------------------------
 #N M062X/def2svp OPT FREQ=NoRaman temperature=273.15 Integral(Grid=Ult
 raFine)
 ----------------------------------------------------------------------
 1/18=20,19=15,26=4,38=1,112=273150/1,3;
 2/9=110,12=2,17=6,18=5,40=1/2;
 3/5=43,7=101,11=2,25=1,30=1,71=1,74=-55,75=-5/1,2,3;
 4//1;
 5/5=2,38=5/2;
 6/7=2,8=2,9=2,10=2,28=1/1;
 7//1,2,3,16;
 1/18=20,19=15,26=4/3(2);
 2/9=110/2;
 99//99;
 2/9=110/2;
 3/5=43,7=101,11=2,25=1,30=1,71=1,74=-55,75=-5/1,2,3;
 4/5=5,16=3,69=1/1;
 5/5=2,38=5/2;
 7//1,2,3,16;
 1/18=20,19=15,26=4/3(-5);
 2/9=110/2;
 6/7=2,8=2,9=2,10=2,19=2,28=1/1;
 99/9=1/99;
 ---------
 Endo-dcpd
 ---------
 Symbolic Z-matrix:
 Charge =  0 Multiplicity = 1
 C
 C                    1    B1
 C                    2    B2       1    A1
 C                    1    B3       2    A2       3    D1       0
 H                    1    B4       4    A3       3    D2       0
 H                    4    B5       1    A4       2    D3       0
 C                    2    B6       1    A5       4    D4       0
 H                    7    B7       2    A6       1    D5       0
 H                    7    B8       2    A7       1    D6       0
 C                    2    B9       1    A8       4    D7       0
 C                    10   B10      2    A9       1    D8       0
 H                    2    B11      1    A10      4    D9       0
 H                    3    B12      2    A11      1    D10      0
 C                    11   B13      10   A12      2    D11      0
 H                    14   B14      11   A13      10   D12      0
 C                    10   B15      2    A14      1    D13      0
 H                    16   B16      10   A15      2    D14      0
 H                    16   B17      10   A16      2    D15      0
 C                    14   B18      11   A17      10   D16      0
 H                    19   B19      14   A18      11   D17      0
 H                    10   B20      2    A19      1    D18      0
 H                    11   B21      10   A20      2    D19      0
       Variables:
  B1                    1.55015                  
  B2                    2.21291                  
  B3                    1.36119                  
  B4                    1.07                     
  B5                    1.07                     
  B6                    1.5236                   
  B7                    1.07                     
  B8                    1.07                     
  B9                    1.53595                  
  B10                   1.50751                  
  B11                   1.07                     
  B12                   1.07                     
  B13                   1.55109                  
  B14                   1.07                     
  B15                   1.52575                  
  B16                   1.07                     
  B17                   1.07                     
  B18                   1.39111                  
  B19                   1.07                     
  B20                   1.07                     
  B21                   1.07                     
  A1                   73.11198                  
  A2                  106.60192                  
  A3                  126.62753                  
  A4                  127.2727                   
  A5                  100.58923                  
  A6                  115.4907                   
  A7                  113.53081                  
  A8                  102.36076                  
  A9                  103.73094                  
  A10                 114.00367                  
  A11                 160.93871                  
  A12                 102.50169                  
  A13                 125.4754                   
  A14                 107.91193                  
  A15                 112.86439                  
  A16                 110.85237                  
  A17                 109.06026                  
  A18                 125.44364                  
  A19                 117.94157                  
  A20                 114.96996                  
  D1                    2.46956                  
  D2                  178.6644                   
  D3                  175.49077                  
  D4                   37.9981                   
  D5                 -171.14971                  
  D6                   65.13653                  
  D7                  -67.68751                  
  D8                   79.95218                  
  D9                  165.60025                  
  D10                 111.91981                  
  D11                -145.90962                  
  D12                -161.88859                  
  D13                 -31.36713                  
  D14                 -88.97323                  
  D15                  32.66831                  
  D16                  16.28301                  
  D17                -173.78507                  
  D18                -159.38611                  
  D19                  94.18751                  
 

 GradGradGradGradGradGradGradGradGradGradGradGradGradGradGradGradGradGrad
 Berny optimization.
 Initialization pass.
                           ----------------------------
                           !    Initial Parameters    !
                           ! (Angstroms and Degrees)  !
 --------------------------                            --------------------------
 ! Name  Definition              Value          Derivative Info.                !
 --------------------------------------------------------------------------------
 ! R1    R(1,2)                  1.5502         estimate D2E/DX2                !
 ! R2    R(1,4)                  1.3612         estimate D2E/DX2                !
 ! R3    R(1,5)                  1.07           estimate D2E/DX2                !
 ! R4    R(2,7)                  1.5236         estimate D2E/DX2                !
 ! R5    R(2,10)                 1.5359         estimate D2E/DX2                !
 ! R6    R(2,12)                 1.07           estimate D2E/DX2                !
 ! R7    R(3,4)                  1.5318         estimate D2E/DX2                !
 ! R8    R(3,7)                  1.5545         estimate D2E/DX2                !
 ! R9    R(3,11)                 1.5318         estimate D2E/DX2                !
 ! R10   R(3,13)                 1.07           estimate D2E/DX2                !
 ! R11   R(4,6)                  1.07           estimate D2E/DX2                !
 ! R12   R(7,8)                  1.07           estimate D2E/DX2                !
 ! R13   R(7,9)                  1.07           estimate D2E/DX2                !
 ! R14   R(10,11)                1.5075         estimate D2E/DX2                !
 ! R15   R(10,16)                1.5258         estimate D2E/DX2                !
 ! R16   R(10,21)                1.07           estimate D2E/DX2                !
 ! R17   R(11,14)                1.5511         estimate D2E/DX2                !
 ! R18   R(11,22)                1.07           estimate D2E/DX2                !
 ! R19   R(14,15)                1.07           estimate D2E/DX2                !
 ! R20   R(14,19)                1.3911         estimate D2E/DX2                !
 ! R21   R(16,17)                1.07           estimate D2E/DX2                !
 ! R22   R(16,18)                1.07           estimate D2E/DX2                !
 ! R23   R(16,19)                1.5487         estimate D2E/DX2                !
 ! R24   R(19,20)                1.07           estimate D2E/DX2                !
 ! A1    A(2,1,4)              106.6019         estimate D2E/DX2                !
 ! A2    A(2,1,5)              126.7298         estimate D2E/DX2                !
 ! A3    A(4,1,5)              126.6275         estimate D2E/DX2                !
 ! A4    A(1,2,7)              100.5892         estimate D2E/DX2                !
 ! A5    A(1,2,10)             102.3608         estimate D2E/DX2                !
 ! A6    A(1,2,12)             114.0037         estimate D2E/DX2                !
 ! A7    A(7,2,10)             102.7241         estimate D2E/DX2                !
 ! A8    A(7,2,12)             118.2395         estimate D2E/DX2                !
 ! A9    A(10,2,12)            116.5103         estimate D2E/DX2                !
 ! A10   A(4,3,7)              102.451          estimate D2E/DX2                !
 ! A11   A(4,3,11)             111.7313         estimate D2E/DX2                !
 ! A12   A(4,3,13)             112.1521         estimate D2E/DX2                !
 ! A13   A(7,3,11)              97.0699         estimate D2E/DX2                !
 ! A14   A(7,3,13)             117.8671         estimate D2E/DX2                !
 ! A15   A(11,3,13)            114.2178         estimate D2E/DX2                !
 ! A16   A(1,4,3)              105.4049         estimate D2E/DX2                !
 ! A17   A(1,4,6)              127.2727         estimate D2E/DX2                !
 ! A18   A(3,4,6)              127.3146         estimate D2E/DX2                !
 ! A19   A(2,7,3)               91.9235         estimate D2E/DX2                !
 ! A20   A(2,7,8)              115.4907         estimate D2E/DX2                !
 ! A21   A(2,7,9)              113.5308         estimate D2E/DX2                !
 ! A22   A(3,7,8)              114.8264         estimate D2E/DX2                !
 ! A23   A(3,7,9)              114.1937         estimate D2E/DX2                !
 ! A24   A(8,7,9)              106.7103         estimate D2E/DX2                !
 ! A25   A(2,10,11)            103.7309         estimate D2E/DX2                !
 ! A26   A(2,10,16)            107.9119         estimate D2E/DX2                !
 ! A27   A(2,10,21)            117.9416         estimate D2E/DX2                !
 ! A28   A(11,10,16)           105.2514         estimate D2E/DX2                !
 ! A29   A(11,10,21)           109.0518         estimate D2E/DX2                !
 ! A30   A(16,10,21)           111.9401         estimate D2E/DX2                !
 ! A31   A(3,11,10)            101.2782         estimate D2E/DX2                !
 ! A32   A(3,11,14)            124.5912         estimate D2E/DX2                !
 ! A33   A(3,11,22)            103.2389         estimate D2E/DX2                !
 ! A34   A(10,11,14)           102.5017         estimate D2E/DX2                !
 ! A35   A(10,11,22)           114.97           estimate D2E/DX2                !
 ! A36   A(14,11,22)           110.4773         estimate D2E/DX2                !
 ! A37   A(11,14,15)           125.4754         estimate D2E/DX2                !
 ! A38   A(11,14,19)           109.0603         estimate D2E/DX2                !
 ! A39   A(15,14,19)           125.4368         estimate D2E/DX2                !
 ! A40   A(10,16,17)           112.8644         estimate D2E/DX2                !
 ! A41   A(10,16,18)           110.8524         estimate D2E/DX2                !
 ! A42   A(10,16,19)           100.8581         estimate D2E/DX2                !
 ! A43   A(17,16,18)           108.265          estimate D2E/DX2                !
 ! A44   A(17,16,19)           116.2835         estimate D2E/DX2                !
 ! A45   A(18,16,19)           107.4739         estimate D2E/DX2                !
 ! A46   A(14,19,16)           109.1173         estimate D2E/DX2                !
 ! A47   A(14,19,20)           125.4436         estimate D2E/DX2                !
 ! A48   A(16,19,20)           125.4386         estimate D2E/DX2                !
 ! D1    D(4,1,2,7)             37.9981         estimate D2E/DX2                !
 ! D2    D(4,1,2,10)           -67.6875         estimate D2E/DX2                !
 ! D3    D(4,1,2,12)           165.6002         estimate D2E/DX2                !
 ! D4    D(5,1,2,7)           -144.2115         estimate D2E/DX2                !
 ! D5    D(5,1,2,10)           110.1029         estimate D2E/DX2                !
 ! D6    D(5,1,2,12)           -16.6093         estimate D2E/DX2                !
 ! D7    D(2,1,4,3)             -3.5422         estimate D2E/DX2                !
 ! D8    D(2,1,4,6)            175.4908         estimate D2E/DX2                !
 ! D9    D(5,1,4,3)            178.6644         estimate D2E/DX2                !
 ! D10   D(5,1,4,6)             -2.3026         estimate D2E/DX2                !
 ! D11   D(1,2,7,3)            -52.3712         estimate D2E/DX2                !
 ! D12   D(1,2,7,8)           -171.1497         estimate D2E/DX2                !
 ! D13   D(1,2,7,9)             65.1365         estimate D2E/DX2                !
 ! D14   D(10,2,7,3)            53.0237         estimate D2E/DX2                !
 ! D15   D(10,2,7,8)           -65.7547         estimate D2E/DX2                !
 ! D16   D(10,2,7,9)           170.5315         estimate D2E/DX2                !
 ! D17   D(12,2,7,3)          -177.1328         estimate D2E/DX2                !
 ! D18   D(12,2,7,8)            64.0887         estimate D2E/DX2                !
 ! D19   D(12,2,7,9)           -59.625          estimate D2E/DX2                !
 ! D20   D(1,2,10,11)           79.9522         estimate D2E/DX2                !
 ! D21   D(1,2,10,16)          -31.3671         estimate D2E/DX2                !
 ! D22   D(1,2,10,21)         -159.3861         estimate D2E/DX2                !
 ! D23   D(7,2,10,11)          -24.0729         estimate D2E/DX2                !
 ! D24   D(7,2,10,16)         -135.3922         estimate D2E/DX2                !
 ! D25   D(7,2,10,21)           96.5888         estimate D2E/DX2                !
 ! D26   D(12,2,10,11)        -154.9697         estimate D2E/DX2                !
 ! D27   D(12,2,10,16)          93.711          estimate D2E/DX2                !
 ! D28   D(12,2,10,21)         -34.308          estimate D2E/DX2                !
 ! D29   D(7,3,4,1)            -31.4073         estimate D2E/DX2                !
 ! D30   D(7,3,4,6)            149.5603         estimate D2E/DX2                !
 ! D31   D(11,3,4,1)            71.5188         estimate D2E/DX2                !
 ! D32   D(11,3,4,6)          -107.5137         estimate D2E/DX2                !
 ! D33   D(13,3,4,1)          -158.76           estimate D2E/DX2                !
 ! D34   D(13,3,4,6)            22.2075         estimate D2E/DX2                !
 ! D35   D(4,3,7,2)             51.3942         estimate D2E/DX2                !
 ! D36   D(4,3,7,8)            170.7342         estimate D2E/DX2                !
 ! D37   D(4,3,7,9)            -65.5435         estimate D2E/DX2                !
 ! D38   D(11,3,7,2)           -62.7768         estimate D2E/DX2                !
 ! D39   D(11,3,7,8)            56.5632         estimate D2E/DX2                !
 ! D40   D(11,3,7,9)          -179.7145         estimate D2E/DX2                !
 ! D41   D(13,3,7,2)           175.0048         estimate D2E/DX2                !
 ! D42   D(13,3,7,8)           -65.6552         estimate D2E/DX2                !
 ! D43   D(13,3,7,9)            58.0671         estimate D2E/DX2                !
 ! D44   D(4,3,11,10)          -56.3632         estimate D2E/DX2                !
 ! D45   D(4,3,11,14)           57.5691         estimate D2E/DX2                !
 ! D46   D(4,3,11,22)         -175.6463         estimate D2E/DX2                !
 ! D47   D(7,3,11,10)           50.0947         estimate D2E/DX2                !
 ! D48   D(7,3,11,14)          164.0271         estimate D2E/DX2                !
 ! D49   D(7,3,11,22)          -69.1884         estimate D2E/DX2                !
 ! D50   D(13,3,11,10)         175.0013         estimate D2E/DX2                !
 ! D51   D(13,3,11,14)         -71.0663         estimate D2E/DX2                !
 ! D52   D(13,3,11,22)          55.7182         estimate D2E/DX2                !
 ! D53   D(2,10,11,3)          -16.3283         estimate D2E/DX2                !
 ! D54   D(2,10,11,14)        -145.9096         estimate D2E/DX2                !
 ! D55   D(2,10,11,22)          94.1875         estimate D2E/DX2                !
 ! D56   D(16,10,11,3)          96.9242         estimate D2E/DX2                !
 ! D57   D(16,10,11,14)        -32.6572         estimate D2E/DX2                !
 ! D58   D(16,10,11,22)       -152.56           estimate D2E/DX2                !
 ! D59   D(21,10,11,3)        -142.8189         estimate D2E/DX2                !
 ! D60   D(21,10,11,14)         87.5998         estimate D2E/DX2                !
 ! D61   D(21,10,11,22)        -32.3031         estimate D2E/DX2                !
 ! D62   D(2,10,16,17)         -88.9732         estimate D2E/DX2                !
 ! D63   D(2,10,16,18)          32.6683         estimate D2E/DX2                !
 ! D64   D(2,10,16,19)         146.2614         estimate D2E/DX2                !
 ! D65   D(11,10,16,17)        160.7419         estimate D2E/DX2                !
 ! D66   D(11,10,16,18)        -77.6166         estimate D2E/DX2                !
 ! D67   D(11,10,16,19)         35.9765         estimate D2E/DX2                !
 ! D68   D(21,10,16,17)         42.4095         estimate D2E/DX2                !
 ! D69   D(21,10,16,18)        164.0511         estimate D2E/DX2                !
 ! D70   D(21,10,16,19)        -82.3559         estimate D2E/DX2                !
 ! D71   D(3,11,14,15)          84.7677         estimate D2E/DX2                !
 ! D72   D(3,11,14,19)         -97.0607         estimate D2E/DX2                !
 ! D73   D(10,11,14,15)       -161.8886         estimate D2E/DX2                !
 ! D74   D(10,11,14,19)         16.283          estimate D2E/DX2                !
 ! D75   D(22,11,14,15)        -38.9076         estimate D2E/DX2                !
 ! D76   D(22,11,14,19)        139.264          estimate D2E/DX2                !
 ! D77   D(11,14,19,16)          6.4632         estimate D2E/DX2                !
 ! D78   D(11,14,19,20)       -173.7851         estimate D2E/DX2                !
 ! D79   D(15,14,19,16)       -175.3644         estimate D2E/DX2                !
 ! D80   D(15,14,19,20)          4.3874         estimate D2E/DX2                !
 ! D81   D(10,16,19,14)        -26.206          estimate D2E/DX2                !
 ! D82   D(10,16,19,20)        154.0423         estimate D2E/DX2                !
 ! D83   D(17,16,19,14)       -148.6166         estimate D2E/DX2                !
 ! D84   D(17,16,19,20)         31.6316         estimate D2E/DX2                !
 ! D85   D(18,16,19,14)         89.9213         estimate D2E/DX2                !
 ! D86   D(18,16,19,20)        -89.8304         estimate D2E/DX2                !
 --------------------------------------------------------------------------------
 Trust Radius=3.00D-01 FncErr=1.00D-07 GrdErr=1.00D-06 EigMax=2.50D+02 EigMin=1.00D-04
 Number of steps in this run=    132 maximum allowed number of steps=    132.
 GradGradGradGradGradGradGradGradGradGradGradGradGradGradGradGradGradGrad

                          Input orientation:                          
 ---------------------------------------------------------------------
 Center     Atomic      Atomic             Coordinates (Angstroms)
 Number     Number       Type             X           Y           Z
 ---------------------------------------------------------------------
      1          6           0        0.000000    0.000000    0.000000
      2          6           0        0.000000    0.000000    1.550152
      3          6           0        2.117477    0.000000    0.907297
      4          6           0        1.303235   -0.056207   -0.388920
      5          1           0       -0.857559    0.003892   -0.639905
      6          1           0        1.678460   -0.139394   -1.387512
      7          6           0        1.218827    0.870297    1.830138
      8          1           0        1.530829    0.910489    2.852850
      9          1           0        1.105010    1.882744    1.503186
     10          6           0        0.509280   -1.411261    1.878946
     11          6           0        2.002839   -1.302021    1.705969
     12          1           0       -0.935405    0.283650    1.985423
     13          1           0        3.123090    0.324178    0.738326
     14          6           0        2.381390   -2.704627    1.162579
     15          1           0        3.364422   -3.127167    1.165509
     16          6           0        0.044124   -2.348540    0.768514
     17          1           0       -0.919531   -2.772775    0.959021
     18          1           0        0.005645   -1.836982   -0.170490
     19          6           0        1.230992   -3.341665    0.708745
     20          1           0        1.175794   -4.354664    0.368617
     21          1           0        0.298194   -1.806749    2.850508
     22          1           0        2.546927   -1.088442    2.602213
 ---------------------------------------------------------------------
                    Distance matrix (angstroms):
                    1          2          3          4          5
     1  C    0.000000
     2  C    1.550152   0.000000
     3  C    2.303670   2.212910   0.000000
     4  C    1.361191   2.337003   1.531772   0.000000
     5  H    1.070000   2.351971   3.353309   2.176152   0.000000
     6  H    2.182166   3.386226   2.340580   1.070000   2.647799
     7  C    2.364817   1.523597   1.554550   2.406190   3.341129
     8  H    3.363210   2.206683   2.226729   3.390482   4.327314
     9  H    2.650536   2.183570   2.219211   2.716411   3.460433
    10  C    2.404467   1.535946   2.349906   2.758578   3.196172
    11  C    2.935465   2.393930   1.531757   2.535757   3.923061
    12  H    2.212994   1.070000   3.250061   3.280932   2.641338
    13  H    3.225509   3.243122   1.070000   2.174223   4.224650
    14  C    3.786505   3.624395   2.729437   3.253260   4.590840
    15  H    4.738873   4.609388   3.376495   4.011924   5.557712
    16  C    2.471477   2.475590   3.135872   2.860036   2.886279
    17  H    3.074661   2.980479   4.112709   3.759971   3.204728
    18  H    1.844885   2.516971   2.999327   2.214185   2.086692
    19  C    3.631031   3.659239   3.462948   3.464726   4.168171
    20  H    4.525646   4.662790   4.487765   4.366559   4.914127
    21  H    3.388017   2.245927   3.217173   3.816857   4.098434
    22  H    3.800402   2.962832   2.059581   3.399876   4.826494
                    6          7          8          9         10
     6  H    0.000000
     7  C    3.403529   0.000000
     8  H    4.370894   1.070000   0.000000
     9  H    3.574077   1.070000   1.717030   0.000000
    10  C    3.695183   2.389842   2.717089   3.368465   0.000000
    11  C    3.320625   2.312804   2.536401   3.315109   1.507505
    12  H    4.288117   2.238075   2.688432   2.636843   2.229613
    13  H    2.611712   2.261972   2.711137   2.662102   3.338377
    14  C    3.684766   3.818020   4.080385   4.773797   2.385534
    15  H    4.276350   4.585306   4.744666   5.506195   3.406635
    16  C    3.492825   3.587183   4.144396   4.423684   1.525753
    17  H    4.380693   4.313165   4.812202   5.105755   2.177495
    18  H    2.676053   3.578223   4.360661   4.224471   2.152922
    19  C    3.853449   4.358704   4.771573   5.285968   2.369958
    20  H    4.594036   5.425690   5.832607   6.340151   3.374753
    21  H    4.758784   3.009201   2.983752   4.009811   1.070000
    22  H    4.191996   2.489299   2.256325   3.480651   2.186168
                   11         12         13         14         15
    11  C    0.000000
    12  H    3.350481   0.000000
    13  H    2.199050   4.245971   0.000000
    14  C    1.551089   4.539604   3.147026   0.000000
    15  H    2.340334   5.549274   3.486045   1.070000   0.000000
    16  C    2.410516   3.060844   4.077298   2.396851   3.433401
    17  H    3.355785   3.224204   5.097314   3.307893   4.303543
    18  H    2.792144   3.167114   3.900644   2.859029   3.838080
    19  C    2.397989   4.412040   4.125448   1.391114   2.192297
    20  H    3.433823   5.346511   5.081359   2.192363   2.632846
    21  H    2.114363   2.576802   4.120946   2.827542   3.739583
    22  H    1.070000   3.793376   2.408637   2.170715   2.624655
                   16         17         18         19         20
    16  C    0.000000
    17  H    1.070000   0.000000
    18  H    1.070000   1.734201   0.000000
    19  C    1.548717   2.238531   2.130400   0.000000
    20  H    2.337761   2.690973   2.828181   1.070000   0.000000
    21  H    2.166284   2.448221   3.035280   2.795215   3.663583
    22  H    3.348779   4.189676   3.834880   3.223960   4.187739
                   21         22
    21  H    0.000000
    22  H    2.373692   0.000000
 Stoichiometry    C10H12
 Framework group  C1[X(C10H12)]
 Deg. of freedom    60
 Full point group                 C1      NOp   1
 Largest Abelian subgroup         C1      NOp   1
 Largest concise Abelian subgroup C1      NOp   1
                         Standard orientation:                         
 ---------------------------------------------------------------------
 Center     Atomic      Atomic             Coordinates (Angstroms)
 Number     Number       Type             X           Y           Z
 ---------------------------------------------------------------------
      1          6           0       -1.157088    1.223830    0.625921
      2          6           0       -1.179500    0.643480   -0.811320
      3          6           0       -0.846684   -1.057988    0.563892
      4          6           0       -0.896808    0.181775    1.462112
      5          1           0       -1.282705    2.249419    0.903929
      6          1           0       -0.742839    0.222818    2.520181
      7          6           0       -1.857315   -0.697900   -0.561091
      8          1           0       -1.864148   -1.372433   -1.391668
      9          1           0       -2.870431   -0.609136   -0.228497
     10          6           0        0.288099    0.245683   -1.028202
     11          6           0        0.410850   -1.074338   -0.310533
     12          1           0       -1.609001    1.299800   -1.539107
     13          1           0       -1.010935   -1.961271    1.113439
     14          6           0        1.862534   -1.026880    0.233746
     15          1           0        2.430220   -1.872002    0.562989
     16          6           0        1.159260    1.215836   -0.235861
     17          1           0        1.428482    2.086213   -0.796986
     18          1           0        0.661459    1.532931    0.656633
     19          6           0        2.322822    0.285021    0.186317
     20          1           0        3.320304    0.601096    0.409982
     21          1           0        0.632604    0.129474   -2.034538
     22          1           0        0.269973   -1.938030   -0.926235
 ---------------------------------------------------------------------
 Rotational constants (GHZ):           2.5673769           1.5016822           1.3597542
 Standard basis: def2SVP (5D, 7F)
 There are   210 symmetry adapted cartesian basis functions of A   symmetry.
 There are   200 symmetry adapted basis functions of A   symmetry.
   200 basis functions,   334 primitive gaussians,   210 cartesian basis functions
    36 alpha electrons       36 beta electrons
       nuclear repulsion energy       541.1638417811 Hartrees.
 NAtoms=   22 NActive=   22 NUniq=   22 SFac= 1.00D+00 NAtFMM=   60 NAOKFM=F Big=F
 Integral buffers will be    131072 words long.
 Raffenetti 2 integral format.
 Two-electron integral symmetry is turned on.
 One-electron integrals computed using PRISM.
   1 Symmetry operations used in ECPInt.
 ECPInt:  NShTT=    4656 NPrTT=   16456 LenC2=    4642 LenP2D=   13521.
 LDataN:  DoStor=T MaxTD1= 4 Len=   56
 NBasis=   200 RedAO= T EigKep=  3.02D-04  NBF=   200
 NBsUse=   200 1.00D-06 EigRej= -1.00D+00 NBFU=   200
 ExpMin= 1.22D-01 ExpMax= 1.24D+03 ExpMxC= 1.86D+02 IAcc=3 IRadAn=         5 AccDes= 0.00D+00
 Harris functional with IExCor= 1009 and IRadAn=       5 diagonalized for initial guess.
 HarFok:  IExCor= 1009 AccDes= 0.00D+00 IRadAn=         5 IDoV= 1 UseB2=F ITyADJ=14
 ICtDFT=  3500011 ScaDFX=  1.000000  1.000000  1.000000  1.000000
 FoFCou: FMM=F IPFlag=           0 FMFlag=      100000 FMFlg1=           0
         NFxFlg=           0 DoJE=T BraDBF=F KetDBF=T FulRan=T
         wScrn=  0.000000 ICntrl=       500 IOpCl=  0 I1Cent=   200000004 NGrid=           0
         NMat0=    1 NMatS0=      1 NMatT0=    0 NMatD0=    1 NMtDS0=    0 NMtDT0=    0
 Petite list used in FoFCou.
 Requested convergence on RMS density matrix=1.00D-08 within 128 cycles.
 Requested convergence on MAX density matrix=1.00D-06.
 Requested convergence on             energy=1.00D-06.
 No special actions if energy rises.
 Integral accuracy reduced to 1.0D-05 until final iterations.
 Initial convergence to 1.0D-05 achieved.  Increase integral accuracy.
 SCF Done:  E(RM062X) =  -387.714844768     A.U. after   14 cycles
            NFock= 14  Conv=0.60D-08     -V/T= 2.0106

 **********************************************************************

            Population analysis using the SCF Density.

 **********************************************************************

 Orbital symmetries:
       Occupied  (A) (A) (A) (A) (A) (A) (A) (A) (A) (A) (A) (A)
                 (A) (A) (A) (A) (A) (A) (A) (A) (A) (A) (A) (A)
                 (A) (A) (A) (A) (A) (A) (A) (A) (A) (A) (A) (A)
       Virtual   (A) (A) (A) (A) (A) (A) (A) (A) (A) (A) (A) (A)
                 (A) (A) (A) (A) (A) (A) (A) (A) (A) (A) (A) (A)
                 (A) (A) (A) (A) (A) (A) (A) (A) (A) (A) (A) (A)
                 (A) (A) (A) (A) (A) (A) (A) (A) (A) (A) (A) (A)
                 (A) (A) (A) (A) (A) (A) (A) (A) (A) (A) (A) (A)
                 (A) (A) (A) (A) (A) (A) (A) (A) (A) (A) (A) (A)
                 (A) (A) (A) (A) (A) (A) (A) (A) (A) (A) (A) (A)
                 (A) (A) (A) (A) (A) (A) (A) (A) (A) (A) (A) (A)
                 (A) (A) (A) (A) (A) (A) (A) (A) (A) (A) (A) (A)
                 (A) (A) (A) (A) (A) (A) (A) (A) (A) (A) (A) (A)
                 (A) (A) (A) (A) (A) (A) (A) (A) (A) (A) (A) (A)
                 (A) (A) (A) (A) (A) (A) (A) (A) (A) (A) (A) (A)
                 (A) (A) (A) (A) (A) (A) (A) (A) (A) (A) (A) (A)
                 (A) (A) (A) (A) (A) (A) (A) (A)
 The electronic state is 1-A.
 Alpha  occ. eigenvalues --  -10.55120 -10.55108 -10.55082 -10.54932 -10.54871
 Alpha  occ. eigenvalues --  -10.54443 -10.54071 -10.54064 -10.53993 -10.52838
 Alpha  occ. eigenvalues --   -0.99767  -0.89655  -0.83007  -0.80958  -0.76293
 Alpha  occ. eigenvalues --   -0.73696  -0.64816  -0.64041  -0.60969  -0.59542
 Alpha  occ. eigenvalues --   -0.57055  -0.55957  -0.54184  -0.47768  -0.46321
 Alpha  occ. eigenvalues --   -0.45279  -0.44621  -0.42189  -0.40925  -0.40192
 Alpha  occ. eigenvalues --   -0.38726  -0.37758  -0.36434  -0.36094  -0.31047
 Alpha  occ. eigenvalues --   -0.25838
 Alpha virt. eigenvalues --    0.03505   0.05663   0.10131   0.13202   0.14017
 Alpha virt. eigenvalues --    0.14374   0.15524   0.16460   0.17248   0.17878
 Alpha virt. eigenvalues --    0.18858   0.19711   0.20552   0.21009   0.21966
 Alpha virt. eigenvalues --    0.23741   0.24118   0.26576   0.27613   0.28884
 Alpha virt. eigenvalues --    0.31692   0.34031   0.35243   0.37192   0.39207
 Alpha virt. eigenvalues --    0.41786   0.43739   0.46195   0.49479   0.50573
 Alpha virt. eigenvalues --    0.51788   0.52539   0.55515   0.56587   0.58250
 Alpha virt. eigenvalues --    0.59173   0.61682   0.64111   0.64753   0.66065
 Alpha virt. eigenvalues --    0.67145   0.68439   0.68761   0.69257   0.70096
 Alpha virt. eigenvalues --    0.71208   0.72078   0.72749   0.73199   0.74064
 Alpha virt. eigenvalues --    0.74378   0.74932   0.75692   0.76507   0.76802
 Alpha virt. eigenvalues --    0.77231   0.78244   0.79547   0.80146   0.80936
 Alpha virt. eigenvalues --    0.82637   0.84113   0.86304   0.86964   0.88949
 Alpha virt. eigenvalues --    0.90898   0.94262   0.95571   0.99515   1.04208
 Alpha virt. eigenvalues --    1.08118   1.10799   1.16405   1.18502   1.23916
 Alpha virt. eigenvalues --    1.28688   1.31891   1.34167   1.37104   1.39539
 Alpha virt. eigenvalues --    1.41037   1.42692   1.50351   1.54663   1.58882
 Alpha virt. eigenvalues --    1.61470   1.62298   1.65501   1.66689   1.69807
 Alpha virt. eigenvalues --    1.71271   1.73557   1.73754   1.75699   1.77079
 Alpha virt. eigenvalues --    1.77121   1.79733   1.80358   1.81473   1.82733
 Alpha virt. eigenvalues --    1.85555   1.87579   1.88073   1.89752   1.91400
 Alpha virt. eigenvalues --    1.92275   1.93358   1.95864   1.97921   1.98351
 Alpha virt. eigenvalues --    1.99704   2.00924   2.02204   2.03663   2.05851
 Alpha virt. eigenvalues --    2.07817   2.09904   2.10609   2.11974   2.12836
 Alpha virt. eigenvalues --    2.13563   2.14413   2.17330   2.18049   2.20080
 Alpha virt. eigenvalues --    2.22550   2.24244   2.24900   2.27044   2.28950
 Alpha virt. eigenvalues --    2.32457   2.36049   2.40715   2.42708   2.47049
 Alpha virt. eigenvalues --    2.47968   2.48647   2.49987   2.53599   2.55921
 Alpha virt. eigenvalues --    2.56902   2.63702   2.64378   2.65621   2.69068
 Alpha virt. eigenvalues --    2.69854   2.74856   2.78154   2.80411   2.83375
 Alpha virt. eigenvalues --    2.84920   2.89130   2.91174   2.94791   2.95648
 Alpha virt. eigenvalues --    3.01844   3.03592   3.04841   3.12513   3.13070
 Alpha virt. eigenvalues --    3.14493   3.16744   3.32908   3.41437
          Condensed to atoms (all electrons):
               1          2          3          4          5          6
     1  C    5.239539   0.222107   0.007359   0.434426   0.451135  -0.072186
     2  C    0.222107   5.315444  -0.083893  -0.030834  -0.053044   0.014241
     3  C    0.007359  -0.083893   5.286480   0.188816   0.013019  -0.061027
     4  C    0.434426  -0.030834   0.188816   5.213233  -0.070657   0.462557
     5  H    0.451135  -0.053044   0.013019  -0.070657   0.648235  -0.007981
     6  H   -0.072186   0.014241  -0.061027   0.462557  -0.007981   0.646874
     7  C   -0.088242   0.365658   0.320527  -0.058646   0.005296   0.005213
     8  H    0.008582  -0.010088  -0.037393   0.008972  -0.000249  -0.000174
     9  H    0.000933  -0.026712  -0.007945  -0.005193   0.000623   0.000183
    10  C    0.014756   0.177271  -0.087289  -0.057004   0.000164  -0.001726
    11  C   -0.076138  -0.093213   0.266732  -0.015493   0.000205   0.002839
    12  H   -0.043130   0.393823   0.003681   0.013751  -0.004966  -0.000235
    13  H    0.013802   0.002343   0.407030  -0.052082  -0.000305  -0.005687
    14  C   -0.000105   0.023555  -0.036781   0.007086  -0.000111   0.001656
    15  H    0.000012  -0.000398   0.002328  -0.000256  -0.000002  -0.000023
    16  C   -0.091035  -0.092577  -0.018324  -0.040829  -0.002794  -0.000580
    17  H    0.001656   0.009015   0.000093   0.002690  -0.000666  -0.000035
    18  H    0.017683  -0.032971  -0.004992  -0.001143   0.000318   0.001881
    19  C   -0.002221   0.008696  -0.009111   0.010497   0.000576   0.000251
    20  H    0.000261  -0.000787  -0.000342  -0.000277   0.000007   0.000009
    21  H    0.004207  -0.002011   0.004420   0.001870  -0.000326   0.000073
    22  H    0.001349  -0.015778  -0.036415   0.009588   0.000086  -0.000263
               7          8          9         10         11         12
     1  C   -0.088242   0.008582   0.000933   0.014756  -0.076138  -0.043130
     2  C    0.365658  -0.010088  -0.026712   0.177271  -0.093213   0.393823
     3  C    0.320527  -0.037393  -0.007945  -0.087289   0.266732   0.003681
     4  C   -0.058646   0.008972  -0.005193  -0.057004  -0.015493   0.013751
     5  H    0.005296  -0.000249   0.000623   0.000164   0.000205  -0.004966
     6  H    0.005213  -0.000174   0.000183  -0.001726   0.002839  -0.000235
     7  C    4.724151   0.381418   0.373822  -0.112166  -0.054938  -0.016828
     8  H    0.381418   0.671823  -0.033038  -0.014989   0.008937  -0.003355
     9  H    0.373822  -0.033038   0.664847   0.012139   0.006190  -0.003929
    10  C   -0.112166  -0.014989   0.012139   5.424792   0.273177  -0.028675
    11  C   -0.054938   0.008937   0.006190   0.273177   5.315250   0.012903
    12  H   -0.016828  -0.003355  -0.003929  -0.028675   0.012903   0.677930
    13  H   -0.018243  -0.002595  -0.003936   0.018383  -0.046757  -0.000408
    14  C    0.007764   0.001129  -0.000432  -0.086957   0.207321  -0.000645
    15  H   -0.000315  -0.000009   0.000003   0.009813  -0.065543   0.000006
    16  C    0.017886   0.001230  -0.000550   0.385320  -0.131383  -0.002360
    17  H   -0.000625  -0.000028   0.000001  -0.040107   0.009783   0.001331
    18  H    0.003897  -0.000204  -0.000026  -0.006905   0.010496  -0.000026
    19  C    0.000255  -0.000230   0.000058  -0.078470  -0.000235  -0.000041
    20  H    0.000077  -0.000001  -0.000002   0.008016   0.012708   0.000012
    21  H   -0.002282   0.001923  -0.000248   0.346086  -0.007638  -0.007056
    22  H    0.009579  -0.001756   0.000125  -0.000445   0.356173   0.000018
              13         14         15         16         17         18
     1  C    0.013802  -0.000105   0.000012  -0.091035   0.001656   0.017683
     2  C    0.002343   0.023555  -0.000398  -0.092577   0.009015  -0.032971
     3  C    0.407030  -0.036781   0.002328  -0.018324   0.000093  -0.004992
     4  C   -0.052082   0.007086  -0.000256  -0.040829   0.002690  -0.001143
     5  H   -0.000305  -0.000111  -0.000002  -0.002794  -0.000666   0.000318
     6  H   -0.005687   0.001656  -0.000023  -0.000580  -0.000035   0.001881
     7  C   -0.018243   0.007764  -0.000315   0.017886  -0.000625   0.003897
     8  H   -0.002595   0.001129  -0.000009   0.001230  -0.000028  -0.000204
     9  H   -0.003936  -0.000432   0.000003  -0.000550   0.000001  -0.000026
    10  C    0.018383  -0.086957   0.009813   0.385320  -0.040107  -0.006905
    11  C   -0.046757   0.207321  -0.065543  -0.131383   0.009783   0.010496
    12  H   -0.000408  -0.000645   0.000006  -0.002360   0.001331  -0.000026
    13  H    0.689756   0.001324   0.001083  -0.000683   0.000053  -0.000309
    14  C    0.001324   5.003489   0.442673  -0.026506   0.007098  -0.014974
    15  H    0.001083   0.442673   0.656521   0.010906  -0.000232  -0.000253
    16  C   -0.000683  -0.026506   0.010906   4.884972   0.374201   0.371886
    17  H    0.000053   0.007098  -0.000232   0.374201   0.681713  -0.027144
    18  H   -0.000309  -0.014974  -0.000253   0.371886  -0.027144   0.618802
    19  C   -0.001046   0.544219  -0.057350   0.298104  -0.022135  -0.002240
    20  H    0.000001  -0.059746  -0.007483  -0.056661  -0.004427   0.001520
    21  H   -0.000461   0.003343  -0.000217  -0.027431  -0.012618   0.007874
    22  H   -0.006428  -0.035984  -0.003155   0.010654  -0.000141  -0.000823
              19         20         21         22
     1  C   -0.002221   0.000261   0.004207   0.001349
     2  C    0.008696  -0.000787  -0.002011  -0.015778
     3  C   -0.009111  -0.000342   0.004420  -0.036415
     4  C    0.010497  -0.000277   0.001870   0.009588
     5  H    0.000576   0.000007  -0.000326   0.000086
     6  H    0.000251   0.000009   0.000073  -0.000263
     7  C    0.000255   0.000077  -0.002282   0.009579
     8  H   -0.000230  -0.000001   0.001923  -0.001756
     9  H    0.000058  -0.000002  -0.000248   0.000125
    10  C   -0.078470   0.008016   0.346086  -0.000445
    11  C   -0.000235   0.012708  -0.007638   0.356173
    12  H   -0.000041   0.000012  -0.007056   0.000018
    13  H   -0.001046   0.000001  -0.000461  -0.006428
    14  C    0.544219  -0.059746   0.003343  -0.035984
    15  H   -0.057350  -0.007483  -0.000217  -0.003155
    16  C    0.298104  -0.056661  -0.027431   0.010654
    17  H   -0.022135  -0.004427  -0.012618  -0.000141
    18  H   -0.002240   0.001520   0.007874  -0.000823
    19  C    4.960512   0.435867   0.006863   0.003882
    20  H    0.435867   0.658907   0.000081  -0.000324
    21  H    0.006863   0.000081   0.679384  -0.016395
    22  H    0.003882  -0.000324  -0.016395   0.710761
 Mulliken charges:
               1
     1  C   -0.044749
     2  C   -0.089849
     3  C   -0.116973
     4  C   -0.021069
     5  H    0.021438
     6  H    0.014138
     7  C    0.136743
     8  H    0.020094
     9  H    0.023085
    10  C   -0.155184
    11  C    0.008625
    12  H    0.008199
    13  H    0.005165
    14  C    0.011583
    15  H    0.011891
    16  C    0.136554
    17  H    0.020523
    18  H    0.057654
    19  C   -0.096701
    20  H    0.012583
    21  H    0.020560
    22  H    0.015691
 Sum of Mulliken charges =  -0.00000
 Mulliken charges with hydrogens summed into heavy atoms:
               1
     1  C   -0.023311
     2  C   -0.081650
     3  C   -0.111808
     4  C   -0.006931
     7  C    0.179922
    10  C   -0.134625
    11  C    0.024316
    14  C    0.023474
    16  C    0.214730
    19  C   -0.084118
 Electronic spatial extent (au):  <R**2>=           1090.5307
 Charge=             -0.0000 electrons
 Dipole moment (field-independent basis, Debye):
    X=             -0.1340    Y=              0.1410    Z=             -0.1829  Tot=              0.2670
 Quadrupole moment (field-independent basis, Debye-Ang):
   XX=            -61.8908   YY=            -57.7592   ZZ=            -60.2777
   XY=              0.1249   XZ=              1.4212   YZ=              0.1586
 Traceless Quadrupole moment (field-independent basis, Debye-Ang):
   XX=             -1.9149   YY=              2.2167   ZZ=             -0.3018
   XY=              0.1249   XZ=              1.4212   YZ=              0.1586
 Octapole moment (field-independent basis, Debye-Ang**2):
  XXX=              6.3797  YYY=              1.0884  ZZZ=              0.6493  XYY=             -0.2632
  XXY=              0.1014  XXZ=             -0.5981  XZZ=             -2.5885  YZZ=              0.3207
  YYZ=              1.0411  XYZ=             -0.8658
 Hexadecapole moment (field-independent basis, Debye-Ang**3):
 XXXX=           -782.7047 YYYY=           -395.4626 ZZZZ=           -294.3190 XXXY=              8.3043
 XXXZ=             20.1988 YYYX=             -8.9690 YYYZ=              1.3660 ZZZX=             -2.0099
 ZZZY=              1.5517 XXYY=           -194.6324 XXZZ=           -194.1461 YYZZ=           -116.5423
 XXYZ=             -4.0769 YYXZ=              1.9517 ZZXY=              1.4275
 N-N= 5.411638417811D+02 E-N=-1.978640763419D+03  KE= 3.836426706837D+02
   1 Symmetry operations used in ECPInt.
 ECPInt:  NShTT=    4656 NPrTT=   16456 LenC2=    4642 LenP2D=   13521.
 LDataN:  DoStor=T MaxTD1= 5 Len=  102
 Calling FoFJK, ICntrl=      2127 FMM=F ISym2X=0 I1Cent= 0 IOpClX= 0 NMat=1 NMatS=1 NMatT=0.
 ***** Axes restored to original set *****
 -------------------------------------------------------------------
 Center     Atomic                   Forces (Hartrees/Bohr)
 Number     Number              X              Y              Z
 -------------------------------------------------------------------
      1        6           0.043718538    0.032599323    0.006193932
      2        6          -0.001413993    0.007563701   -0.020622853
      3        6           0.001377571    0.004751913   -0.013097272
      4        6          -0.031672674    0.020272098    0.033211547
      5        1          -0.013488037   -0.002427060   -0.007409055
      6        1           0.006966642   -0.001481454   -0.012309214
      7        6           0.000477288   -0.009317579   -0.022717154
      8        1           0.006603952   -0.006210982    0.020713064
      9        1          -0.002265734    0.018162658   -0.010881562
     10        6          -0.014924395    0.006095707   -0.020037925
     11        6           0.017328683   -0.028563860   -0.022563064
     12        1          -0.016105559    0.004587421    0.009849861
     13        1           0.019860614    0.007420159    0.001057599
     14        6          -0.065803997   -0.000931142   -0.020419211
     15        1           0.014042758   -0.005496080    0.001031764
     16        6           0.028468343   -0.051637667    0.025794884
     17        1          -0.017555662   -0.013846499    0.006163898
     18        1          -0.004532589   -0.009804621   -0.009038439
     19        6           0.034002500    0.048238073    0.023457949
     20        1           0.000470478   -0.013473614   -0.009115592
     21        1          -0.012262572   -0.004327540    0.018055164
     22        1           0.006707845   -0.002172955    0.022681679
 -------------------------------------------------------------------
 Cartesian Forces:  Max     0.065803997 RMS     0.020056736

 GradGradGradGradGradGradGradGradGradGradGradGradGradGradGradGradGradGrad
 Berny optimization.
 FormGI is forming the generalized inverse of G from B-inverse, IUseBI=4.
 Internal  Forces:  Max     0.047412825 RMS     0.011962224
 Search for a local minimum.
 Step number   1 out of a maximum of  132
 All quantities printed in internal units (Hartrees-Bohrs-Radians)
 Mixed Optimization -- RFO/linear search
 Second derivative matrix not updated -- first step.
 ITU=  0
     Eigenvalues ---    0.00583   0.00718   0.00818   0.00858   0.01217
     Eigenvalues ---    0.01341   0.01613   0.01783   0.02549   0.02802
     Eigenvalues ---    0.03454   0.04117   0.04203   0.04288   0.04732
     Eigenvalues ---    0.04976   0.05250   0.05406   0.05603   0.05682
     Eigenvalues ---    0.05812   0.06205   0.06742   0.07235   0.07630
     Eigenvalues ---    0.07707   0.09374   0.09392   0.11171   0.12751
     Eigenvalues ---    0.15078   0.15977   0.15986   0.15996   0.16000
     Eigenvalues ---    0.18875   0.22357   0.23317   0.24247   0.25841
     Eigenvalues ---    0.25965   0.26771   0.27595   0.28529   0.28833
     Eigenvalues ---    0.29097   0.37230   0.37230   0.37230   0.37230
     Eigenvalues ---    0.37230   0.37230   0.37230   0.37230   0.37230
     Eigenvalues ---    0.37230   0.37230   0.37230   0.44070   0.46806
 RFO step:  Lambda=-8.84438813D-02 EMin= 5.83048750D-03
 Linear search not attempted -- first point.
 Maximum step size (   0.300) exceeded in Quadratic search.
    -- Step size scaled by   0.715
 Iteration  1 RMS(Cart)=  0.10908630 RMS(Int)=  0.00379085
 Iteration  2 RMS(Cart)=  0.00492014 RMS(Int)=  0.00062550
 Iteration  3 RMS(Cart)=  0.00001025 RMS(Int)=  0.00062544
 Iteration  4 RMS(Cart)=  0.00000001 RMS(Int)=  0.00062544
 Variable       Old X    -DE/DX   Delta X   Delta X   Delta X     New X
                                 (Linear)    (Quad)   (Total)
    R1        2.92936  -0.00405   0.00000  -0.01157  -0.01126   2.91810
    R2        2.57228  -0.01525   0.00000  -0.02252  -0.02268   2.54959
    R3        2.02201   0.01524   0.00000   0.02365   0.02365   2.04566
    R4        2.87918   0.00654   0.00000   0.01785   0.01718   2.89636
    R5        2.90252   0.04406   0.00000   0.08696   0.08738   2.98990
    R6        2.02201   0.01930   0.00000   0.02997   0.02997   2.05198
    R7        2.89463  -0.00852   0.00000  -0.01672  -0.01712   2.87751
    R8        2.93767  -0.00487   0.00000  -0.01049  -0.01092   2.92675
    R9        2.89460   0.02734   0.00000   0.05120   0.05111   2.94571
   R10        2.02201   0.02075   0.00000   0.03221   0.03221   2.05422
   R11        2.02201   0.01405   0.00000   0.02181   0.02181   2.04381
   R12        2.02201   0.02149   0.00000   0.03336   0.03336   2.05537
   R13        2.02201   0.02075   0.00000   0.03222   0.03222   2.05423
   R14        2.84877   0.02352   0.00000   0.05130   0.05212   2.90089
   R15        2.88325   0.02282   0.00000   0.04810   0.04768   2.93094
   R16        2.02201   0.02041   0.00000   0.03170   0.03170   2.05370
   R17        2.93113  -0.00814   0.00000  -0.01996  -0.01943   2.91171
   R18        2.02201   0.02198   0.00000   0.03412   0.03412   2.05613
   R19        2.02201   0.01508   0.00000   0.02341   0.02341   2.04542
   R20        2.62882  -0.04741   0.00000  -0.06651  -0.06609   2.56273
   R21        2.02201   0.02240   0.00000   0.03478   0.03478   2.05678
   R22        2.02201   0.00340   0.00000   0.00528   0.00528   2.02729
   R23        2.92665  -0.02067   0.00000  -0.04200  -0.04229   2.88437
   R24        2.02201   0.01563   0.00000   0.02426   0.02426   2.04627
    A1        1.86055   0.00506   0.00000   0.00915   0.00887   1.86943
    A2        2.21185  -0.00474   0.00000  -0.01105  -0.01101   2.20085
    A3        2.21007  -0.00047   0.00000   0.00112   0.00112   2.21119
    A4        1.75561  -0.01788   0.00000  -0.05311  -0.05254   1.70308
    A5        1.78653   0.02172   0.00000   0.08611   0.08568   1.87222
    A6        1.98974   0.00193   0.00000   0.00653   0.00533   1.99507
    A7        1.79287  -0.00218   0.00000  -0.01141  -0.01041   1.78246
    A8        2.06367   0.00449   0.00000  -0.00248  -0.00301   2.06065
    A9        2.03349  -0.00726   0.00000  -0.01931  -0.02039   2.01310
   A10        1.78811  -0.01366   0.00000  -0.04342  -0.04269   1.74542
   A11        1.95008   0.01797   0.00000   0.06203   0.06105   2.01113
   A12        1.95742   0.00182   0.00000   0.00740   0.00657   1.96400
   A13        1.69419  -0.00306   0.00000  -0.01645  -0.01556   1.67863
   A14        2.05717   0.00230   0.00000  -0.00042  -0.00086   2.05631
   A15        1.99348  -0.00553   0.00000  -0.01111  -0.01168   1.98179
   A16        1.83966   0.00702   0.00000   0.01629   0.01557   1.85523
   A17        2.22133  -0.00136   0.00000  -0.00187  -0.00152   2.21981
   A18        2.22206  -0.00567   0.00000  -0.01444  -0.01407   2.20798
   A19        1.60437   0.00714   0.00000   0.01859   0.01741   1.62178
   A20        2.01569  -0.00412   0.00000  -0.01557  -0.01523   2.00047
   A21        1.98149  -0.00156   0.00000  -0.00012   0.00034   1.98183
   A22        2.00410  -0.00329   0.00000  -0.01356  -0.01303   1.99107
   A23        1.99306  -0.00352   0.00000  -0.00786  -0.00767   1.98538
   A24        1.86245   0.00471   0.00000   0.01610   0.01583   1.87827
   A25        1.81045  -0.01304   0.00000  -0.03204  -0.03233   1.77812
   A26        1.88342   0.03806   0.00000   0.13349   0.13353   2.01694
   A27        2.05847  -0.00600   0.00000  -0.02477  -0.02367   2.03480
   A28        1.83698  -0.00845   0.00000  -0.00270  -0.00404   1.83294
   A29        1.90331   0.01027   0.00000   0.01386   0.01227   1.91558
   A30        1.95372  -0.02104   0.00000  -0.08307  -0.08212   1.87160
   A31        1.76764   0.00442   0.00000   0.01989   0.01941   1.78704
   A32        2.17453   0.01876   0.00000   0.04546   0.04625   2.22078
   A33        1.80186  -0.01235   0.00000  -0.03644  -0.03636   1.76550
   A34        1.78899  -0.01202   0.00000  -0.01039  -0.01194   1.77706
   A35        2.00660   0.00471   0.00000  -0.00253  -0.00204   2.00456
   A36        1.92819  -0.00165   0.00000  -0.01202  -0.01191   1.91629
   A37        2.18996  -0.01135   0.00000  -0.02422  -0.02490   2.16506
   A38        1.90346   0.02105   0.00000   0.04290   0.04277   1.94623
   A39        2.18928  -0.00995   0.00000  -0.02039  -0.02114   2.16815
   A40        1.96986   0.00009   0.00000   0.00548   0.00606   1.97591
   A41        1.93474   0.00868   0.00000   0.02854   0.02830   1.96303
   A42        1.76031   0.00034   0.00000   0.01332   0.01249   1.77279
   A43        1.88958  -0.00171   0.00000  -0.00736  -0.00788   1.88170
   A44        2.02953   0.00502   0.00000   0.00751   0.00763   2.03716
   A45        1.87577  -0.01230   0.00000  -0.04683  -0.04675   1.82903
   A46        1.90446   0.00726   0.00000   0.01397   0.01390   1.91835
   A47        2.18940  -0.00400   0.00000  -0.00802  -0.00800   2.18140
   A48        2.18932  -0.00326   0.00000  -0.00591  -0.00589   2.18343
    D1        0.66319   0.00454   0.00000   0.02487   0.02439   0.68758
    D2       -1.18137   0.00630   0.00000   0.02977   0.03170  -1.14967
    D3        2.89027  -0.00140   0.00000  -0.01192  -0.01203   2.87824
    D4       -2.51696   0.00026   0.00000   0.00388   0.00310  -2.51387
    D5        1.92166   0.00202   0.00000   0.00878   0.01041   1.93207
    D6       -0.28989  -0.00569   0.00000  -0.03291  -0.03332  -0.32320
    D7       -0.06182  -0.00396   0.00000  -0.01597  -0.01605  -0.07787
    D8        3.06289  -0.00423   0.00000  -0.01733  -0.01779   3.04510
    D9        3.11828   0.00044   0.00000   0.00535   0.00575   3.12403
   D10       -0.04019   0.00017   0.00000   0.00398   0.00401  -0.03618
   D11       -0.91405  -0.00850   0.00000  -0.04025  -0.04000  -0.95405
   D12       -2.98713  -0.00750   0.00000  -0.03047  -0.03015  -3.01727
   D13        1.13685  -0.00923   0.00000  -0.03966  -0.03960   1.09725
   D14        0.92544   0.00879   0.00000   0.03264   0.03283   0.95827
   D15       -1.14764   0.00979   0.00000   0.04242   0.04268  -1.10496
   D16        2.97634   0.00805   0.00000   0.03323   0.03323   3.00956
   D17       -3.09155   0.00034   0.00000  -0.00553  -0.00561  -3.09716
   D18        1.11856   0.00134   0.00000   0.00425   0.00424   1.12280
   D19       -1.04065  -0.00040   0.00000  -0.00494  -0.00521  -1.04586
   D20        1.39543  -0.01378   0.00000  -0.04955  -0.04991   1.34552
   D21       -0.54746  -0.01333   0.00000  -0.08421  -0.08298  -0.63044
   D22       -2.78181  -0.01415   0.00000  -0.07103  -0.07125  -2.85306
   D23       -0.42015  -0.00040   0.00000  -0.01461  -0.01473  -0.43489
   D24       -2.36304   0.00006   0.00000  -0.04926  -0.04780  -2.41084
   D25        1.68579  -0.00077   0.00000  -0.03608  -0.03608   1.64972
   D26       -2.70473   0.00078   0.00000   0.01258   0.01201  -2.69272
   D27        1.63557   0.00123   0.00000  -0.02207  -0.02106   1.61451
   D28       -0.59879   0.00041   0.00000  -0.00889  -0.00933  -0.60812
   D29       -0.54816  -0.00185   0.00000  -0.00760  -0.00754  -0.55570
   D30        2.61032  -0.00163   0.00000  -0.00639  -0.00597   2.60434
   D31        1.24824  -0.00584   0.00000  -0.02629  -0.02776   1.22048
   D32       -1.87647  -0.00563   0.00000  -0.02508  -0.02620  -1.90266
   D33       -2.77089   0.00355   0.00000   0.01812   0.01803  -2.75286
   D34        0.38759   0.00377   0.00000   0.01932   0.01959   0.40719
   D35        0.89700   0.00830   0.00000   0.03470   0.03465   0.93165
   D36        2.97987   0.00654   0.00000   0.02309   0.02286   3.00273
   D37       -1.14395   0.00728   0.00000   0.02724   0.02730  -1.11665
   D38       -1.09566  -0.00646   0.00000  -0.01538  -0.01524  -1.11090
   D39        0.98721  -0.00822   0.00000  -0.02699  -0.02704   0.96018
   D40       -3.13661  -0.00749   0.00000  -0.02284  -0.02259   3.12399
   D41        3.05441   0.00138   0.00000   0.01004   0.01016   3.06457
   D42       -1.14590  -0.00038   0.00000  -0.00157  -0.00163  -1.14753
   D43        1.01346   0.00036   0.00000   0.00258   0.00281   1.01627
   D44       -0.98372   0.01421   0.00000   0.03821   0.03832  -0.94541
   D45        1.00477   0.01187   0.00000   0.06506   0.06554   1.07031
   D46       -3.06561   0.01185   0.00000   0.04652   0.04656  -3.01905
   D47        0.87432   0.00218   0.00000  -0.00185  -0.00225   0.87207
   D48        2.86281  -0.00016   0.00000   0.02500   0.02498   2.88779
   D49       -1.20757  -0.00018   0.00000   0.00645   0.00599  -1.20157
   D50        3.05435   0.00041   0.00000  -0.01796  -0.01805   3.03630
   D51       -1.24034  -0.00193   0.00000   0.00889   0.00918  -1.23116
   D52        0.97247  -0.00196   0.00000  -0.00966  -0.00981   0.96266
   D53       -0.28498   0.00223   0.00000   0.01519   0.01559  -0.26940
   D54       -2.54660  -0.01539   0.00000  -0.03993  -0.03997  -2.58658
   D55        1.64388  -0.00786   0.00000  -0.01702  -0.01669   1.62719
   D56        1.69165   0.03582   0.00000   0.14879   0.14840   1.84005
   D57       -0.56998   0.01820   0.00000   0.09367   0.09284  -0.47713
   D58       -2.66268   0.02573   0.00000   0.11659   0.11612  -2.54656
   D59       -2.49266   0.01163   0.00000   0.05663   0.05631  -2.43635
   D60        1.52890  -0.00599   0.00000   0.00151   0.00075   1.52966
   D61       -0.56380   0.00154   0.00000   0.02442   0.02403  -0.53976
   D62       -1.55288  -0.00914   0.00000  -0.03651  -0.03516  -1.58804
   D63        0.57017  -0.00495   0.00000  -0.02133  -0.01980   0.55037
   D64        2.55274  -0.01547   0.00000  -0.05707  -0.05600   2.49674
   D65        2.80547  -0.00627   0.00000  -0.05391  -0.05431   2.75116
   D66       -1.35467  -0.00208   0.00000  -0.03873  -0.03895  -1.39362
   D67        0.62791  -0.01260   0.00000  -0.07447  -0.07515   0.55276
   D68        0.74019  -0.00240   0.00000  -0.02514  -0.02618   0.71400
   D69        2.86323   0.00179   0.00000  -0.00996  -0.01082   2.85241
   D70       -1.43738  -0.00873   0.00000  -0.04569  -0.04702  -1.48440
   D71        1.47947  -0.00555   0.00000  -0.04632  -0.04644   1.43303
   D72       -1.69403  -0.01393   0.00000  -0.10334  -0.10415  -1.79818
   D73       -2.82549   0.00026   0.00000  -0.00418  -0.00448  -2.82997
   D74        0.28419  -0.00812   0.00000  -0.06120  -0.06218   0.22201
   D75       -0.67907  -0.00209   0.00000  -0.01939  -0.01954  -0.69860
   D76        2.43062  -0.01047   0.00000  -0.07640  -0.07724   2.35337
   D77        0.11280   0.00434   0.00000   0.02214   0.02249   0.13530
   D78       -3.03312   0.00428   0.00000   0.02879   0.02958  -3.00354
   D79       -3.06069  -0.00406   0.00000  -0.03494  -0.03541  -3.09610
   D80        0.07657  -0.00413   0.00000  -0.02829  -0.02833   0.04825
   D81       -0.45738   0.00173   0.00000   0.02635   0.02759  -0.42979
   D82        2.68854   0.00179   0.00000   0.01970   0.02050   2.70905
   D83       -2.59385  -0.00134   0.00000   0.00608   0.00672  -2.58713
   D84        0.55208  -0.00128   0.00000  -0.00057  -0.00038   0.55170
   D85        1.56942   0.00700   0.00000   0.04675   0.04695   1.61637
   D86       -1.56784   0.00707   0.00000   0.04010   0.03986  -1.52798
         Item               Value     Threshold  Converged?
 Maximum Force            0.047413     0.000450     NO 
 RMS     Force            0.011962     0.000300     NO 
 Maximum Displacement     0.585909     0.001800     NO 
 RMS     Displacement     0.108236     0.001200     NO 
 Predicted change in Energy=-5.100331D-02
 GradGradGradGradGradGradGradGradGradGradGradGradGradGradGradGradGradGrad

                          Input orientation:                          
 ---------------------------------------------------------------------
 Center     Atomic      Atomic             Coordinates (Angstroms)
 Number     Number       Type             X           Y           Z
 ---------------------------------------------------------------------
      1          6           0        0.018795    0.197681   -0.033471
      2          6           0       -0.015028    0.036827    1.501947
      3          6           0        2.127466    0.026777    0.869995
      4          6           0        1.311546    0.122064   -0.412131
      5          1           0       -0.841325    0.291496   -0.684038
      6          1           0        1.697191    0.111484   -1.422524
      7          6           0        1.235420    0.864278    1.819486
      8          1           0        1.545949    0.834400    2.861441
      9          1           0        1.149585    1.908994    1.531595
     10          6           0        0.467131   -1.433757    1.830903
     11          6           0        1.986834   -1.316196    1.648784
     12          1           0       -0.953375    0.332069    1.961762
     13          1           0        3.158329    0.342974    0.732125
     14          6           0        2.354852   -2.726622    1.149430
     15          1           0        3.357798   -3.133252    1.167160
     16          6           0        0.024525   -2.524750    0.821256
     17          1           0       -0.922664   -2.992617    1.083081
     18          1           0       -0.061467   -2.147032   -0.179155
     19          6           0        1.252492   -3.430804    0.791592
     20          1           0        1.245322   -4.480788    0.526968
     21          1           0        0.244339   -1.807295    2.826849
     22          1           0        2.540327   -1.091177    2.558111
 ---------------------------------------------------------------------
                    Distance matrix (angstroms):
                    1          2          3          4          5
     1  C    0.000000
     2  C    1.544191   0.000000
     3  C    2.300424   2.233774   0.000000
     4  C    1.349187   2.330399   1.522713   0.000000
     5  H    1.082518   2.350777   3.361371   2.176578   0.000000
     6  H    2.180346   3.389661   2.334086   1.081540   2.649873
     7  C    2.314730   1.532686   1.548769   2.353039   3.302814
     8  H    3.334385   2.218332   2.226269   3.358369   4.308624
     9  H    2.580060   2.205042   2.221870   2.645263   3.389550
    10  C    2.517635   1.582185   2.411062   2.857415   3.318656
    11  C    2.999163   2.420679   1.558803   2.602302   4.003150
    12  H    2.223540   1.085860   3.282795   3.287756   2.648482
    13  H    3.234798   3.279718   1.087045   2.183742   4.243276
    14  C    3.925298   3.657493   2.776868   3.412034   4.763002
    15  H    4.866782   4.640845   3.404087   4.156729   5.726121
    16  C    2.853458   2.650770   3.306815   3.191127   3.308602
    17  H    3.508708   3.190107   4.297143   4.114437   3.730244
    18  H    2.350605   2.756356   3.258464   2.662374   2.609502
    19  C    3.920286   3.759744   3.567435   3.751707   4.518525
    20  H    4.868935   4.790398   4.605865   4.698142   5.347459
    21  H    3.500318   2.285481   3.277082   3.918207   4.232010
    22  H    3.838694   2.986254   2.066400   3.435723   4.884555
                    6          7          8          9         10
     6  H    0.000000
     7  C    3.360143   0.000000
     8  H    4.347164   1.087654   0.000000
     9  H    3.501104   1.087052   1.755092   0.000000
    10  C    3.805996   2.423090   2.714847   3.424809   0.000000
    11  C    3.399279   2.312623   2.507983   3.334152   1.535085
    12  H    4.304364   2.257059   2.703401   2.663490   2.270045
    13  H    2.613622   2.269733   2.715742   2.669573   3.406851
    14  C    3.886169   3.820558   4.033135   4.804961   2.387341
    15  H    4.471285   4.572773   4.679278   5.516635   3.418303
    16  C    3.844748   3.734734   4.214377   4.629085   1.550984
    17  H    4.772540   4.480542   4.889035   5.340521   2.218290
    18  H    3.120855   3.839852   4.551697   4.565595   2.197387
    19  C    4.200937   4.416399   4.749984   5.391812   2.384356
    20  H    5.009358   5.499129   5.813033   6.468983   3.404441
    21  H    4.883611   3.022304   2.945154   4.038311   1.086773
    22  H    4.242962   2.464173   2.188296   3.462502   2.223586
                   11         12         13         14         15
    11  C    0.000000
    12  H    3.385198   0.000000
    13  H    2.228342   4.291647   0.000000
    14  C    1.540809   4.578192   3.200333   0.000000
    15  H    2.326628   5.588028   3.509015   1.082388   0.000000
    16  C    2.448686   3.227764   4.248824   2.361964   3.405970
    17  H    3.405229   3.438977   5.282408   3.288962   4.283598
    18  H    2.868307   3.394844   4.171048   2.817741   3.804809
    19  C    2.396999   4.516012   4.228137   1.356141   2.159144
    20  H    3.438452   5.482380   5.193299   2.166937   2.586167
    21  H    2.159931   2.599957   4.183642   2.848361   3.769132
    22  H    1.088055   3.819321   2.402694   2.166440   2.602513
                   16         17         18         19         20
    16  C    0.000000
    17  H    1.088402   0.000000
    18  H    1.072795   1.746401   0.000000
    19  C    1.526341   2.237919   2.077718   0.000000
    20  H    2.324442   2.687764   2.766356   1.082840   0.000000
    21  H    2.141369   2.409898   3.040559   2.791849   3.665921
    22  H    3.376545   4.217048   3.921325   3.202025   4.158370
                   21         22
    21  H    0.000000
    22  H    2.420042   0.000000
 Stoichiometry    C10H12
 Framework group  C1[X(C10H12)]
 Deg. of freedom    60
 Full point group                 C1      NOp   1
 Largest Abelian subgroup         C1      NOp   1
 Largest concise Abelian subgroup C1      NOp   1
                         Standard orientation:                         
 ---------------------------------------------------------------------
 Center     Atomic      Atomic             Coordinates (Angstroms)
 Number     Number       Type             X           Y           Z
 ---------------------------------------------------------------------
      1          6           0       -1.374807    1.130149    0.699039
      2          6           0       -1.155385    0.751147   -0.781750
      3          6           0       -0.903923   -1.105905    0.433927
      4          6           0       -1.154023    0.018050    1.430336
      5          1           0       -1.602566    2.118470    1.077445
      6          1           0       -1.137558   -0.062582    2.508740
      7          6           0       -1.805961   -0.635791   -0.733979
      8          1           0       -1.693943   -1.220390   -1.644301
      9          1           0       -2.864327   -0.610817   -0.487163
     10          6           0        0.376410    0.394047   -0.953196
     11          6           0        0.442302   -1.014558   -0.346585
     12          1           0       -1.546165    1.474610   -1.490964
     13          1           0       -1.094212   -2.088529    0.858080
     14          6           0        1.865554   -1.037863    0.243248
     15          1           0        2.394796   -1.942514    0.513566
     16          6           0        1.360310    1.242789   -0.106361
     17          1           0        1.716591    2.130971   -0.624837
     18          1           0        0.933304    1.556443    0.826471
     19          6           0        2.410772    0.203428    0.275701
     20          1           0        3.439626    0.423124    0.532092
     21          1           0        0.760470    0.374582   -1.969657
     22          1           0        0.326487   -1.826325   -1.061765
 ---------------------------------------------------------------------
 Rotational constants (GHZ):           2.5790097           1.3922139           1.2709939
 Standard basis: def2SVP (5D, 7F)
 There are   210 symmetry adapted cartesian basis functions of A   symmetry.
 There are   200 symmetry adapted basis functions of A   symmetry.
   200 basis functions,   334 primitive gaussians,   210 cartesian basis functions
    36 alpha electrons       36 beta electrons
       nuclear repulsion energy       532.3790819012 Hartrees.
 NAtoms=   22 NActive=   22 NUniq=   22 SFac= 1.00D+00 NAtFMM=   60 NAOKFM=F Big=F
 Integral buffers will be    131072 words long.
 Raffenetti 2 integral format.
 Two-electron integral symmetry is turned on.
 One-electron integrals computed using PRISM.
   1 Symmetry operations used in ECPInt.
 ECPInt:  NShTT=    4656 NPrTT=   16456 LenC2=    4641 LenP2D=   13426.
 LDataN:  DoStor=T MaxTD1= 4 Len=   56
 NBasis=   200 RedAO= T EigKep=  3.51D-04  NBF=   200
 NBsUse=   200 1.00D-06 EigRej= -1.00D+00 NBFU=   200
 Initial guess from the checkpoint file:  "axMeCyhex.chk"
 B after Tr=    -0.000000    0.000000   -0.000000
         Rot=    0.998269   -0.049973    0.030913    0.002356 Ang=  -6.74 deg.
 ExpMin= 1.22D-01 ExpMax= 1.24D+03 ExpMxC= 1.86D+02 IAcc=3 IRadAn=         5 AccDes= 0.00D+00
 Harris functional with IExCor= 1009 and IRadAn=       5 diagonalized for initial guess.
 HarFok:  IExCor= 1009 AccDes= 0.00D+00 IRadAn=         5 IDoV= 1 UseB2=F ITyADJ=14
 ICtDFT=  3500011 ScaDFX=  1.000000  1.000000  1.000000  1.000000
 FoFCou: FMM=F IPFlag=           0 FMFlag=      100000 FMFlg1=           0
         NFxFlg=           0 DoJE=T BraDBF=F KetDBF=T FulRan=T
         wScrn=  0.000000 ICntrl=       500 IOpCl=  0 I1Cent=   200000004 NGrid=           0
         NMat0=    1 NMatS0=      1 NMatT0=    0 NMatD0=    1 NMtDS0=    0 NMtDT0=    0
 Petite list used in FoFCou.
 Requested convergence on RMS density matrix=1.00D-08 within 128 cycles.
 Requested convergence on MAX density matrix=1.00D-06.
 Requested convergence on             energy=1.00D-06.
 No special actions if energy rises.
 Integral accuracy reduced to 1.0D-05 until final iterations.
 Initial convergence to 1.0D-05 achieved.  Increase integral accuracy.
 SCF Done:  E(RM062X) =  -387.747093242     A.U. after   13 cycles
            NFock= 13  Conv=0.65D-08     -V/T= 2.0116
   1 Symmetry operations used in ECPInt.
 ECPInt:  NShTT=    4656 NPrTT=   16456 LenC2=    4641 LenP2D=   13426.
 LDataN:  DoStor=T MaxTD1= 5 Len=  102
 Calling FoFJK, ICntrl=      2127 FMM=F ISym2X=0 I1Cent= 0 IOpClX= 0 NMat=1 NMatS=1 NMatT=0.
 ***** Axes restored to original set *****
 -------------------------------------------------------------------
 Center     Atomic                   Forces (Hartrees/Bohr)
 Number     Number              X              Y              Z
 -------------------------------------------------------------------
      1        6           0.015176965   -0.003833557    0.005526781
      2        6          -0.002512401   -0.001263378   -0.013416211
      3        6           0.006731819    0.002677305   -0.006129415
      4        6          -0.018237857   -0.002060729    0.017235070
      5        1          -0.005667762   -0.002510788   -0.002772525
      6        1           0.003294157    0.000471593   -0.004825684
      7        6           0.002580306   -0.001150119   -0.001307434
      8        1           0.002825950   -0.003844726    0.008482382
      9        1          -0.001600899    0.006259749   -0.005017786
     10        6          -0.007732853    0.011357942   -0.020693189
     11        6           0.007329876   -0.020908239   -0.015573053
     12        1          -0.005508961    0.002126434    0.004823008
     13        1           0.007772988    0.003000613    0.003163664
     14        6          -0.022993608    0.003566224   -0.007019781
     15        1           0.006523012   -0.001027023   -0.000368568
     16        6           0.015168428   -0.011893068    0.019522161
     17        1          -0.004278360   -0.006498111    0.004164393
     18        1          -0.006877252    0.008284698   -0.014108511
     19        6           0.014072639    0.022866266    0.012939501
     20        1           0.000257353   -0.004616060   -0.005702164
     21        1          -0.006197138    0.004560292    0.009556110
     22        1          -0.000126403   -0.005565318    0.011521251
 -------------------------------------------------------------------
 Cartesian Forces:  Max     0.022993608 RMS     0.009505697

 GradGradGradGradGradGradGradGradGradGradGradGradGradGradGradGradGradGrad
 Berny optimization.
 Using GEDIIS/GDIIS optimizer.
 FormGI is forming the generalized inverse of G from B-inverse, IUseBI=4.
 Internal  Forces:  Max     0.018609002 RMS     0.003916386
 Search for a local minimum.
 Step number   2 out of a maximum of  132
 All quantities printed in internal units (Hartrees-Bohrs-Radians)
 Mixed Optimization -- RFO/linear search
 Update second derivatives using D2CorX and points    1    2
 DE= -3.22D-02 DEPred=-5.10D-02 R= 6.32D-01
 TightC=F SS=  1.41D+00  RLast= 4.83D-01 DXNew= 5.0454D-01 1.4503D+00
 Trust test= 6.32D-01 RLast= 4.83D-01 DXMaxT set to 5.05D-01
 ITU=  1  0
 Use linear search instead of GDIIS.
     Eigenvalues ---    0.00597   0.00738   0.00836   0.00867   0.01218
     Eigenvalues ---    0.01343   0.01618   0.01800   0.02480   0.02853
     Eigenvalues ---    0.03531   0.04004   0.04086   0.04291   0.04881
     Eigenvalues ---    0.05104   0.05320   0.05358   0.05396   0.05605
     Eigenvalues ---    0.05878   0.06767   0.06953   0.07032   0.07903
     Eigenvalues ---    0.08030   0.09334   0.10429   0.11157   0.12558
     Eigenvalues ---    0.15745   0.15887   0.15983   0.16000   0.16015
     Eigenvalues ---    0.21058   0.23147   0.23724   0.24895   0.25500
     Eigenvalues ---    0.25978   0.26276   0.27636   0.28691   0.28977
     Eigenvalues ---    0.34141   0.34654   0.37230   0.37230   0.37230
     Eigenvalues ---    0.37230   0.37230   0.37230   0.37230   0.37230
     Eigenvalues ---    0.37230   0.37230   0.40969   0.43254   0.46728
 RFO step:  Lambda=-2.00730903D-02 EMin= 5.97112784D-03
 Quartic linear search produced a step of  0.22521.
 Iteration  1 RMS(Cart)=  0.06817515 RMS(Int)=  0.00277863
 Iteration  2 RMS(Cart)=  0.00318736 RMS(Int)=  0.00096918
 Iteration  3 RMS(Cart)=  0.00000769 RMS(Int)=  0.00096915
 Iteration  4 RMS(Cart)=  0.00000001 RMS(Int)=  0.00096915
 Variable       Old X    -DE/DX   Delta X   Delta X   Delta X     New X
                                 (Linear)    (Quad)   (Total)
    R1        2.91810  -0.00769  -0.00254  -0.03658  -0.03920   2.87890
    R2        2.54959  -0.00738  -0.00511  -0.01484  -0.01981   2.52978
    R3        2.04566   0.00595   0.00533   0.01277   0.01809   2.06376
    R4        2.89636   0.00608   0.00387   0.02167   0.02571   2.92207
    R5        2.98990  -0.00469   0.01968  -0.03649  -0.01682   2.97307
    R6        2.05198   0.00738   0.00675   0.01569   0.02244   2.07442
    R7        2.87751  -0.00216  -0.00386  -0.00051  -0.00423   2.87328
    R8        2.92675   0.00236  -0.00246   0.00745   0.00516   2.93191
    R9        2.94571   0.00138   0.01151  -0.00112   0.01012   2.95583
   R10        2.05422   0.00784   0.00725   0.01660   0.02385   2.07807
   R11        2.04381   0.00568   0.00491   0.01235   0.01726   2.06108
   R12        2.05537   0.00904   0.00751   0.01996   0.02747   2.08284
   R13        2.05423   0.00747   0.00726   0.01547   0.02273   2.07696
   R14        2.90089   0.00537   0.01174   0.02249   0.03266   2.93355
   R15        2.93094  -0.00454   0.01074  -0.02090  -0.01120   2.91973
   R16        2.05370   0.00846   0.00714   0.01858   0.02571   2.07942
   R17        2.91171  -0.01355  -0.00437  -0.05648  -0.06110   2.85061
   R18        2.05613   0.00841   0.00768   0.01790   0.02559   2.08171
   R19        2.04542   0.00642   0.00527   0.01425   0.01952   2.06494
   R20        2.56273  -0.01861  -0.01488  -0.03752  -0.05102   2.51171
   R21        2.05678   0.00752   0.00783   0.01505   0.02288   2.07967
   R22        2.02729   0.01663   0.00119   0.04908   0.05027   2.07756
   R23        2.88437  -0.00344  -0.00952  -0.00521  -0.01325   2.87111
   R24        2.04627   0.00587   0.00546   0.01238   0.01785   2.06412
    A1        1.86943   0.00104   0.00200  -0.00198  -0.00053   1.86890
    A2        2.20085  -0.00188  -0.00248  -0.00635  -0.00852   2.19233
    A3        2.21119   0.00085   0.00025   0.00857   0.00899   2.22017
    A4        1.70308   0.00067  -0.01183   0.03251   0.02023   1.72330
    A5        1.87222  -0.00376   0.01930  -0.04371  -0.02439   1.84783
    A6        1.99507   0.00196   0.00120   0.02567   0.02673   2.02180
    A7        1.78246  -0.00108  -0.00234  -0.01544  -0.01802   1.76444
    A8        2.06065   0.00039  -0.00068  -0.00677  -0.00775   2.05290
    A9        2.01310   0.00115  -0.00459   0.00444  -0.00018   2.01292
   A10        1.74542  -0.00326  -0.00961  -0.01089  -0.02042   1.72500
   A11        2.01113  -0.00541   0.01375  -0.06578  -0.05239   1.95874
   A12        1.96400   0.00554   0.00148   0.04327   0.04462   2.00862
   A13        1.67863   0.00243  -0.00350   0.01987   0.01551   1.69415
   A14        2.05631  -0.00085  -0.00019  -0.00792  -0.00792   2.04840
   A15        1.98179   0.00027  -0.00263   0.01118   0.00919   1.99099
   A16        1.85523   0.00512   0.00351   0.03070   0.03384   1.88907
   A17        2.21981  -0.00120  -0.00034  -0.00792  -0.00820   2.21160
[...]
 .06987384,0.02819846,-0.00809421,-0.00228816,0.07220037,-0.02380208,-0
 .07148451,-0.00218195,-0.00123283,-0.00149787,0.00146505,-0.00026761,-
 0.00656314,-0.00104905,0.00024370,0.00093038,0.00147627,0.00095930,0.0
 0000163,-0.00937068,0.00575017,0.00325847,0.00040641,0.00041791,0.0002
 0553,0.00063941,-0.00003999,0.00013079,-0.01049679,0.00189199,0.002627
 84,-0.00147132,0.00198581,-0.00002825,-0.07870705,0.02258528,0.0734694
 9,-0.00086175,-0.00070641,-0.00109935,-0.00233513,0.00170619,0.0014818
 8,-0.29968997,-0.08337326,-0.01273557,-0.00566779,-0.00116686,0.002224
 01,-0.00030747,0.00006526,0.00007676,0.00020592,0.00021610,-0.00033719
 ,-0.01090666,-0.00700764,-0.00339615,0.00029265,0.00000137,0.00030679,
 0.00028035,0.00023272,-0.00018555,0.00016412,0.00058296,-0.00014883,0.
 00043578,0.00175969,-0.00052259,-0.00060824,-0.00077678,-0.00026959,0.
 31865353,-0.00011162,0.00079794,-0.00051367,0.00372813,-0.00224154,-0.
 00211842,-0.08476013,-0.07378170,-0.00658451,0.00147120,-0.00129326,0.
 00080819,0.00010512,0.00028429,0.00014819,-0.00009024,-0.00001881,0.00
 006309,0.01612795,0.00785683,0.00423625,-0.00080620,0.00028533,0.00004
 112,-0.00068695,0.00033306,0.00049559,0.00049774,-0.00400617,0.0020744
 1,-0.02502472,-0.00577094,-0.00195131,0.00080724,0.00106143,0.00027111
 ,0.08976949,0.07534018,-0.00294646,-0.00013093,-0.00588094,0.00243501,
 -0.00164414,-0.00243026,-0.01194429,-0.00552738,-0.04975400,-0.0269543
 9,-0.00910387,0.00459456,-0.00142936,0.00093812,0.00038173,0.00121698,
 0.00024297,0.00074748,0.01277193,0.00813049,0.00173133,-0.00043628,0.0
 0041873,0.00023703,-0.00067454,-0.00012815,0.00035182,0.00133947,0.001
 82551,-0.00029932,0.01111354,0.00175393,0.00000165,0.00057791,0.000492
 36,0.00063697,0.01400066,0.00288875,0.04943147,-0.00028360,-0.00030854
 ,0.00071085,-0.00268256,0.00094628,0.00076043,0.00371170,-0.00585456,-
 0.00710326,0.00049975,0.00087511,-0.00110280,0.00006746,0.00005364,-0.
 00000293,0.00029083,0.00017806,0.00004378,-0.00112537,-0.00202958,0.00
 076296,-0.00032064,-0.00000526,0.00019678,0.00096293,-0.00009283,-0.00
 004323,-0.01918170,0.01841239,0.01676817,-0.08914849,0.01726318,0.0144
 8178,-0.00005086,0.00078258,-0.00052417,-0.00010038,-0.00004569,-0.000
 21306,0.87630912,-0.00046295,-0.00068005,-0.00071854,-0.00052381,-0.00
 036376,0.00037972,0.00750392,-0.02539926,-0.01177590,0.00025065,-0.001
 59012,-0.00040089,-0.00005543,-0.00005689,-0.00003566,0.00023012,-0.00
 001968,-0.00019647,-0.00114638,-0.00439751,0.00224335,-0.00017225,0.00
 027568,-0.00023862,0.00104959,-0.00016828,-0.00080608,0.01211429,-0.00
 207398,-0.00306903,0.02886559,-0.16523602,-0.07099233,-0.00002392,0.00
 026899,-0.00008194,-0.00041935,0.00105065,-0.00020238,0.11110012,0.476
 52278,-0.00085329,0.00117018,-0.00052051,0.00072098,0.00034645,-0.0004
 0079,-0.00618599,0.00347804,0.01353644,-0.00119003,0.00123845,0.000993
 19,-0.00009609,-0.00000368,-0.00001185,0.00007468,0.00000604,-0.000096
 15,0.00013236,0.00422811,-0.00160226,-0.00007371,0.00021720,0.00033893
 ,-0.00107222,0.00087732,0.00069694,0.01202317,-0.00476404,-0.00478197,
 0.02048010,-0.06806090,-0.12575173,-0.00020204,-0.00006320,0.00004507,
 0.00029470,0.00086213,-0.00018291,-0.02072414,0.20292568,0.28962692,0.
 00005346,-0.00002400,-0.00001205,0.00003589,-0.00009654,0.00018682,-0.
 00010110,0.00016007,0.00034781,-0.00009951,0.00013231,0.00013515,-0.00
 000234,-0.00000958,-0.00000128,-0.00000300,0.00005038,-0.00010176,0.00
 002559,0.00019503,-0.00012048,0.00001403,-0.00001955,-0.00002135,-0.00
 002076,0.00004280,0.00001888,0.00020805,-0.00110460,-0.00046074,0.0013
 2996,-0.00236565,-0.00134849,0.00004215,0.00002230,-0.00001300,-0.0000
 5114,0.00019359,-0.00001258,-0.30197739,0.06517224,0.07936469,0.316269
 82,-0.00000694,0.00003946,-0.00007158,0.00049580,0.00001070,-0.0001936
 5,-0.00028305,0.00130875,0.00038199,-0.00014921,-0.00009605,0.00016791
 ,-0.00001149,-0.00001180,0.00005427,0.00008461,-0.00010486,0.00018997,
 0.00003187,0.00000834,-0.00008218,0.00001060,0.00005895,0.00007364,-0.
 00002032,-0.00010317,0.00004557,-0.00029634,-0.00228122,-0.00346652,0.
 02005149,0.00074873,-0.00311047,0.00006062,-0.00024686,0.00012782,-0.0
 0020228,-0.00045783,0.00002112,0.06986404,-0.06937893,-0.03042500,-0.0
 7193891,0.06083910,0.00005853,0.00002786,-0.00011574,0.00065404,-0.000
 08525,-0.00023610,0.00018004,-0.00013326,-0.00003913,-0.00009181,-0.00
 005490,-0.00000571,0.00000229,0.00000330,0.00001191,0.00003526,0.00003
 533,-0.00000639,0.00008739,-0.00011483,0.00005978,0.00000665,0.0000216
 9,-0.00001765,0.00004086,-0.00008308,-0.00000400,0.00020114,-0.0029716
 8,-0.00008778,0.01349129,0.00028655,-0.00027531,0.00000088,-0.00026129
 ,0.00012072,-0.00006678,-0.00023396,0.00005991,0.08229498,-0.03013776,
 -0.07007275,-0.08801546,0.03466170,0.05952987,0.00117122,-0.00080692,0
 .00151681,0.00490070,0.00436683,0.00789744,-0.00221463,-0.00034946,-0.
 00087048,-0.00018007,0.00094569,-0.00004872,-0.00036422,-0.00022759,-0
 .00034040,0.00006585,-0.00025206,0.00001121,-0.00121031,0.00220139,-0.
 00090379,-0.00029605,0.00002028,-0.00010181,0.00082006,0.00041349,-0.0
 0006828,-0.08460964,-0.02885770,-0.01975698,-0.01796738,-0.01710826,-0
 .01306036,0.00003541,0.00021956,-0.00000112,0.00007229,-0.00050925,0.0
 0024009,-0.04177400,0.00322952,0.01134988,-0.00179566,-0.00299300,-0.0
 0025802,0.56272227,-0.00011184,-0.00123505,-0.00060852,-0.01177391,-0.
 01993725,-0.00969508,-0.00021559,-0.00132741,-0.00072999,0.00004435,0.
 00007385,-0.00079012,-0.00026291,-0.00008143,-0.00017424,-0.00000172,-
 0.00007022,0.00001322,0.00169515,-0.00451002,0.00196511,0.00006482,0.0
 0021716,-0.00014023,-0.00113478,-0.00029762,-0.00048282,-0.03162437,-0
 .14388164,-0.04145176,-0.01236566,-0.00664379,0.00236061,0.00030150,0.
 00082296,-0.00022982,-0.00004746,-0.00011051,0.00006696,-0.00553461,0.
 00934514,0.00029934,-0.00228592,0.00176154,-0.00632453,0.03137867,0.48
 887135,0.00183332,0.00219822,0.00147763,0.00495012,0.00567978,0.006610
 75,0.00118445,0.00045708,0.00096736,-0.00039883,-0.00036348,-0.0006149
 5,-0.00028911,-0.00025612,-0.00008944,0.00008474,0.00004128,-0.0000437
 8,-0.00017503,0.00317606,-0.00108405,0.00015106,0.00010044,0.00026991,
 0.00072288,0.00079725,0.00044428,-0.02110970,-0.04070917,-0.10777241,-
 0.00832370,0.00362810,-0.00567109,-0.00018354,0.00097357,-0.00008876,0
 .00016927,0.00041961,-0.00021084,0.00334000,-0.00220780,0.00848961,0.0
 0003377,-0.00612675,0.00728185,0.02114185,-0.06686252,0.53017062,0.000
 17693,0.00020360,-0.00023175,-0.00021559,0.00015084,-0.00044836,-0.000
 32396,-0.00050687,-0.00019062,-0.00020162,0.00009722,-0.00017004,0.000
 10525,-0.00003273,0.00012700,0.00000403,0.00004637,-0.00000265,-0.0000
 3769,-0.00001716,0.00019135,0.00000128,0.00001085,0.00001004,0.0000285
 0,-0.00001924,0.00001880,-0.00316522,-0.00329946,0.00442824,-0.0006057
 3,-0.00120902,0.00108887,0.00002582,-0.00003928,0.00002849,0.00000091,
 -0.00012494,0.00008271,-0.00163577,0.00262170,0.00163663,-0.00080383,0
 .00081747,-0.00187757,-0.09540386,-0.07852392,0.07401933,0.10545592,-0
 .00012665,-0.00002599,-0.00062744,-0.00235539,-0.00144341,-0.00154825,
 -0.00074774,-0.00013314,0.00004572,0.00018319,-0.00005101,0.00002947,-
 0.00001101,0.00008794,-0.00002309,-0.00002388,-0.00001370,0.00003957,0
 .00014998,-0.00081635,0.00032321,-0.00001167,0.00000661,-0.00005793,-0
 .00037009,-0.00016163,-0.00005631,-0.00808826,-0.01311570,0.01448415,0
 .00019835,-0.00180729,-0.00069976,0.00012981,-0.00016613,0.00000676,-0
 .00005470,-0.00018560,0.00009005,0.00181728,-0.00113749,-0.00069300,0.
 00026820,-0.00038085,0.00113040,-0.07598623,-0.15709776,0.10607310,0.0
 8335822,0.16769880,0.00026999,0.00036314,-0.00039147,-0.00092500,-0.00
 111843,-0.00070548,-0.00064037,-0.00059165,0.00058990,-0.00029680,-0.0
 0009284,-0.00016293,0.00009485,-0.00008344,0.00015119,-0.00001703,0.00
 002593,0.00003490,0.00005056,-0.00025749,0.00010689,0.00000618,0.00001
 566,0.00001472,-0.00017434,-0.00009388,-0.00002593,-0.00817523,-0.0120
 5818,0.00976214,-0.00016116,-0.00069985,-0.00080690,0.00001171,-0.0000
 3050,0.00001996,-0.00003717,-0.00010964,0.00011344,0.00068305,-0.00165
 709,-0.00118575,0.00019980,-0.00019724,0.00072821,0.07484867,0.1094853
 4,-0.14986957,-0.08080682,-0.11398365,0.15993650,0.00028315,-0.0001116
 4,-0.00032414,0.00103966,0.00040026,-0.00037413,-0.00007911,0.00010881
 ,0.00002785,-0.00035574,0.00032045,-0.00006362,0.00033466,-0.00010848,
 0.00031910,-0.00001996,-0.00000599,0.00003007,0.00008641,0.00011829,0.
 00005991,0.00001678,0.00006094,0.00009733,0.00007109,-0.00009325,0.000
 00073,-0.00399213,0.00229296,-0.00354063,-0.00136916,0.00056334,-0.001
 39583,-0.00009963,-0.00040843,0.00017602,0.00004505,-0.00006083,0.0001
 1538,-0.00170155,0.00234247,0.00151331,-0.00041609,-0.00138797,0.00141
 164,-0.15706160,0.04204055,-0.12586174,0.00996530,-0.00356736,0.009848
 56,0.17231591,0.00032716,-0.00098299,0.00064931,-0.00015809,0.00141000
 ,-0.00022103,-0.00000856,0.00025284,-0.00040162,-0.00038741,0.00067471
 ,0.00008717,-0.00029622,-0.00077968,0.00057018,0.00002807,-0.00012882,
 0.00006456,0.00009579,0.00020969,-0.00013197,-0.00000724,0.00006471,0.
 00013351,0.00009641,-0.00002137,0.00003176,-0.01672621,0.00593429,-0.0
 1665072,-0.00094240,-0.00242977,-0.00279984,0.00024838,-0.00002047,-0.
 00008796,0.00003173,-0.00009840,0.00011534,0.00144394,-0.00125282,-0.0
 0064373,-0.00001164,0.00075684,-0.00049868,0.04432842,-0.06137456,0.04
 604876,0.01319893,-0.00518403,0.01407928,-0.04619457,0.06678419,-0.000
 12594,0.00039542,0.00006055,0.00008790,0.00142170,0.00066004,-0.000071
 88,-0.00017635,0.00053448,0.00023634,-0.00070340,-0.00023776,0.0001418
 1,0.00057959,0.00010953,0.00001289,0.00016620,-0.00000828,0.00014172,0
 .00019438,-0.00025064,-0.00001315,0.00003478,0.00005509,0.00006069,-0.
 00004094,0.00006066,-0.00690446,0.00234364,-0.00936630,0.00055982,-0.0
 0006395,-0.00058466,0.00012435,-0.00041930,-0.00007169,0.00001862,-0.0
 0009493,0.00001751,0.00190576,-0.00001244,-0.00161533,0.00013896,0.000
 90080,-0.00083807,-0.12500390,0.04475081,-0.17961752,-0.01317974,0.005
 04914,-0.01412151,0.13514067,-0.04931871,0.19168405,0.00000796,0.00056
 972,-0.00035704,-0.00198522,-0.00078295,-0.00107504,-0.00130420,0.0034
 1963,0.00029905,-0.00013266,0.00016871,0.00038088,-0.00012286,-0.00000
 756,0.00002323,-0.00023129,-0.00010630,0.00006663,0.00086963,-0.000164
 14,-0.00002431,0.00017854,-0.00003492,0.00006693,-0.00073160,-0.000133
 39,0.00007400,0.00777978,0.00609964,0.00337077,0.00355975,-0.01154528,
 -0.00647939,-0.00001970,0.00013504,0.00000011,0.00005271,-0.00035647,0
 .00015195,-0.43071131,-0.20698851,-0.09013595,-0.01314101,-0.01572827,
 -0.00779900,-0.17366743,0.05052054,0.05029188,-0.01442483,0.00571165,0
 .00519829,-0.01852160,0.00759539,0.00924358,0.70091438,0.00029575,-0.0
 0007794,-0.00003059,-0.00116108,-0.00113941,-0.00201348,0.00083565,-0.
 00039958,-0.00142369,-0.00057657,-0.00130911,-0.00087151,0.00013071,-0
 .00007950,0.00015949,0.00015262,0.00009938,0.00020233,0.00007341,-0.00
 142006,0.00074955,-0.00000317,0.00007731,0.00015834,0.00016290,-0.0003
 9079,-0.00007904,0.01407384,-0.02305047,-0.01805555,-0.01801755,-0.022
 83138,-0.01973019,0.00013750,-0.00001185,0.00005291,-0.00006686,-0.000
 22871,0.00007739,-0.19950459,-0.21062142,-0.07937972,0.01067510,0.0089
 8760,0.00104423,0.03957273,-0.10168642,-0.02566683,-0.01745143,0.01297
 076,0.00768928,0.00461208,-0.00211392,-0.00330170,0.16829758,0.5960803
 6,0.00053601,0.00097175,0.00039280,-0.00007508,-0.00003636,-0.00163401
 ,0.00085153,0.00150505,-0.00428686,-0.00060139,0.00226002,0.00045495,0
 .00003498,-0.00016621,0.00017384,-0.00003771,-0.00038706,0.00033523,-0
 .00037386,-0.00121203,0.00039298,0.00009746,0.00000673,0.00028164,0.00
 028699,-0.00038231,0.00005308,0.00733403,-0.01712711,-0.01277578,-0.01
 149430,-0.02475074,-0.00372773,0.00013554,-0.00023167,0.00003513,-0.00
 007094,-0.00040250,0.00012565,-0.08669762,-0.07790237,-0.09701298,0.01
 003931,0.00444424,0.00762373,0.04328672,-0.02733074,-0.09778683,0.0156
 3523,-0.01008587,-0.00601701,-0.01779295,0.01057467,0.01391766,0.03905
 004,0.28680118,0.34106052,0.00004920,-0.00005373,0.00017841,0.00038020
 ,0.00017640,0.00053317,0.00041553,-0.00030008,-0.00075687,-0.00002696,
 0.00008289,-0.00022698,0.00001376,0.00002064,-0.00002937,0.00003587,-0
 .00000637,0.00002418,-0.00017062,-0.00012416,0.00004464,-0.00006062,0.
 00000175,-0.00000164,0.00026331,-0.00001436,-0.00006319,-0.00426814,0.
 00109553,0.00196362,-0.00394913,-0.00210187,0.00052929,0.00002456,-0.0
 0002231,0.00000803,0.00001291,-0.00000633,-0.00002031,0.00642672,-0.02
 142447,-0.01458683,0.00067775,0.00114695,-0.00010357,0.00669659,0.0180
 7969,0.01170964,0.00029988,-0.00084055,0.00007057,0.00036211,-0.000390
 31,-0.00089375,-0.05692037,-0.00307548,-0.00017772,0.04919600,-0.00002
 412,-0.00004486,0.00002302,0.00010065,0.00025311,-0.00024594,-0.000375
 79,0.00058437,0.00061374,0.00004428,-0.00011059,0.00010997,0.00003151,
 -0.00002417,0.00002183,-0.00001681,-0.00003417,0.00005454,0.00002072,0
 .00027223,-0.00006948,0.00001711,0.00002420,0.00009451,-0.00008034,0.0
 0003230,0.00014973,0.00008684,0.00055162,-0.00122607,-0.00207294,0.003
 30246,-0.00601357,0.00000880,-0.00005518,0.00003144,0.00001102,0.00000
 375,0.00001864,0.00494290,-0.00499972,-0.00836678,0.00017502,-0.001555
 19,0.00311292,-0.00377463,-0.00282313,-0.00247181,0.00060762,-0.000209
 85,-0.00042408,0.00002528,0.00013829,0.00009965,-0.00717679,-0.2478415
 7,-0.14318433,0.00736164,0.25457536,0.00003559,0.00008634,-0.00010179,
 -0.00035700,-0.00018593,-0.00040132,0.00028095,-0.00085281,-0.00158426
 ,-0.00005181,0.00014684,-0.00016805,-0.00000461,0.00001545,0.00001313,
 -0.00002380,0.00001149,0.00000105,0.00007742,-0.00090345,0.00036965,-0
 .00001695,0.00003404,-0.00007159,0.00007300,-0.00020863,-0.00017874,0.
 00120393,-0.00099056,0.00133713,0.00078444,-0.00565030,0.00809677,0.00
 003273,-0.00006141,0.00001523,-0.00004663,-0.00019669,0.00005671,0.003
 55511,-0.00431020,0.00259080,-0.00073712,0.00290548,-0.00388876,-0.003
 55311,-0.00586898,-0.00198610,-0.00024910,0.00039617,0.00019821,0.0006
 8730,-0.00036310,-0.00004538,-0.00310215,-0.14387547,-0.13948733,0.001
 74972,0.15848698,0.13463863,0.00014818,0.00245820,-0.00044455,0.002552
 15,0.00199032,-0.01282054,-0.00331512,0.00046971,0.00058595,-0.0003277
 0,0.00033104,-0.00125861,0.00008961,-0.00009854,-0.00020527,0.00005199
 ,-0.00018316,0.00004462,0.00023843,-0.00019674,0.00070617,0.00004617,-
 0.00043183,-0.00011585,-0.00011443,-0.00002164,-0.00013785,-0.05894740
 ,-0.00410544,0.06459663,-0.00704810,-0.00215740,0.02814895,0.00026696,
 -0.00080194,-0.00005543,-0.00008110,-0.00081784,0.00051449,-0.00331539
 ,-0.00071964,0.00057543,-0.00010421,0.00096921,0.00030769,0.00305737,-
 0.00094757,-0.01202044,0.00084653,0.00047653,0.00002987,-0.00042245,-0
 .00114092,-0.00119380,-0.00125408,-0.00033821,-0.00080828,0.00033344,-
 0.00006571,0.00013168,0.06599057,0.00095484,-0.00464253,0.00046213,-0.
 00671341,-0.00347139,0.02747995,0.00003658,-0.00137380,0.00069946,-0.0
 0072351,-0.00023225,0.00078385,-0.00014729,-0.00001227,0.00051056,-0.0
 0014492,0.00061521,-0.00013039,0.00059117,0.00156091,0.00070649,-0.000
 31029,-0.00054207,-0.00042448,0.00018726,0.00012348,-0.00029608,-0.004
 48506,-0.04497105,0.01189756,0.00055035,0.00057177,-0.00082337,0.00034
 978,0.00124918,-0.00048860,-0.00008167,-0.00006277,0.00001864,0.000653
 08,-0.00039741,-0.00011467,0.00015941,-0.00010055,-0.00008665,0.004776
 48,-0.00006708,-0.02355963,0.00016145,0.00113553,-0.00030373,-0.000308
 60,-0.00188523,-0.00174346,-0.00137703,-0.00232826,-0.00160738,0.00083
 650,-0.00047750,-0.00011707,0.00522221,0.05476448,-0.00053771,0.002076
 52,0.00018140,0.00236490,0.00055714,-0.01041848,-0.00026533,0.00038740
 ,0.00032795,-0.00033881,0.00022401,0.00001983,0.00009317,0.00005347,-0
 .00019102,0.00005022,-0.00018033,0.00011082,-0.00003707,-0.00091772,-0
 .00012019,0.00047097,0.00008899,0.00044041,-0.00004132,0.00016147,0.00
 030512,0.06526568,0.01182929,-0.30696462,-0.00272620,-0.00051030,0.000
 79266,-0.00035957,-0.00000539,0.00045669,0.00000032,0.00010219,-0.0000
 6624,0.00008091,-0.00010978,0.00013425,0.00003032,0.00003527,-0.000114
 10,0.00301528,0.00163527,-0.01047402,-0.00008782,0.00007750,0.00156081
 ,-0.00005575,-0.00152022,-0.00073162,-0.00099385,-0.00095141,-0.000631
 81,0.00038775,-0.00011163,-0.00013049,-0.06635464,-0.01294764,0.324167
 09,0.00010473,-0.00010242,0.00115034,-0.00315715,-0.00046702,0.0004262
 1,0.00340060,-0.00223152,0.00767382,0.00055684,-0.00172159,0.00009907,
 0.00003242,0.00010161,-0.00001505,0.00001653,0.00016725,0.00007461,0.0
 0008996,-0.00015260,-0.00076683,-0.00006694,0.00045481,0.00022791,-0.0
 0002672,0.00006043,0.00022308,-0.01090310,0.00103932,-0.02192237,-0.10
 961899,0.00812491,-0.11311478,-0.00027156,0.00079145,-0.00045846,0.000
 39341,0.00070075,0.00007114,0.00574046,-0.00254350,0.00695437,-0.00014
 066,-0.00051488,-0.00056049,-0.00299691,0.00070499,-0.00127019,-0.0000
 9222,-0.00010965,-0.00007816,-0.00048110,-0.00113062,-0.00042650,-0.00
 019458,0.00117507,0.00084202,0.00020800,0.00015374,-0.00046960,0.00130
 859,-0.00018733,0.00003855,0.11609840,0.00084101,-0.00004973,0.0005496
 8,0.00041159,-0.00127622,0.00072114,0.01308182,-0.00401609,0.02552262,
 -0.00074591,-0.00480157,0.00054867,0.00008540,0.00059009,-0.00012799,0
 .00026243,0.00001777,0.00043526,-0.00045162,0.00177305,0.00076520,0.00
 019859,-0.00049103,-0.00048438,-0.00028838,0.00013791,-0.00020977,-0.0
 0072713,-0.00012762,-0.00091720,0.00611241,-0.04228167,0.00431239,0.00
 007865,-0.00009818,0.00000085,-0.00047326,0.00124278,-0.00036215,-0.01
 495692,0.00031009,-0.02313420,0.00060995,0.00019729,0.00066190,-0.0005
 8798,0.00005190,-0.00136912,-0.00005021,0.00003029,0.00004306,-0.00063
 831,0.00004651,-0.00006093,0.00188369,-0.00268503,-0.00175697,-0.00044
 198,-0.00156176,0.00150182,0.00010937,0.00054362,0.00002590,-0.0043132
 1,0.05244758,0.00033564,0.00016303,-0.00035306,0.00119238,0.00052204,0
 .00008702,-0.00632430,0.00177917,-0.01294281,0.00049925,0.00270671,0.0
 0010355,-0.00001906,-0.00023972,0.00013234,-0.00016389,-0.00002716,-0.
 00019803,0.00005263,-0.00108759,0.00013876,-0.00036165,-0.00001333,0.0
 0048955,0.00015402,0.00015414,0.00022722,0.00583869,-0.00076011,0.0065
 5055,-0.11588081,0.00657912,-0.24853795,0.00005491,-0.00012726,0.00006
 845,0.00034332,-0.00020498,0.00033724,-0.00917332,-0.00069344,-0.01321
 716,0.00034881,-0.00033639,0.00028552,0.00065902,0.00011271,-0.0004026
 3,-0.00002223,0.00003007,0.00006967,-0.00001911,0.00028306,0.00038917,
 0.00174941,-0.00155552,-0.00148685,-0.00033877,-0.00070329,0.00072648,
 -0.00022623,0.00008450,0.00134554,0.12130130,-0.00666576,0.26618746\\-
 0.00003838,-0.00003203,-0.00002893,0.00001054,0.00004874,-0.00002569,-
 0.00001563,-0.00003752,0.00001506,0.00000561,-0.00001548,-0.00002615,0
 .00000572,0.00000199,0.00000171,-0.00001177,0.00000593,0.00002187,-0.0
 0003664,-0.00002444,0.00004486,0.00000561,0.00001335,-0.00000132,-0.00
 000570,-0.00001017,0.00002126,0.00005554,0.00004103,0.00001105,0.00000
 746,-0.00000809,0.00001048,0.00000645,-0.00000021,-0.00001135,-0.00002
 156,-0.00001641,0.00000641,0.00013486,0.00000420,0.00007021,0.00000793
 ,0.00002037,-0.00000543,-0.00009701,0.00003439,-0.00003410,-0.00000506
 ,-0.00000354,-0.00000098,0.00001869,0.00000068,0.00003016,-0.00005746,
 -0.00005257,-0.00005158,0.00000417,0.00002936,-0.00000263,0.00001968,-
 0.00001645,-0.00002959,0.00000696,0.00001686,-0.00001532\\\@
 The archive entry for this job was punched.


 It is also a good rule not to put too much confidence in
 experimental results until they have been confirmed by
 Theory.
                             -- Sir Arthur Eddington
 Job cpu time:       0 days  0 hours 43 minutes 43.9 seconds.
 Elapsed time:       0 days  0 hours  2 minutes 46.0 seconds.
 File lengths (MBytes):  RWF=    102 Int=      0 D2E=      0 Chk=      6 Scr=      1
 Normal termination of Gaussian 16 at Mon Dec 27 18:49:30 2021.
