 Entering Gaussian System, Link 0=/software/g16/g16
 Input=Z-isomer.com
 Output=Z-isomer.log
 Initial command:
 /software/g16/l1.exe "/scratch/Gau-1168287.inp" -scrdir="/scratch/"
 Default CPUs for threads: 0-15
 Default is to use a total of  16 processors:
                               16 via shared-memory
                                1 via Linda
 Entering Link 1 = /software/g16/l1.exe PID=   1168288.
  
 Copyright (c) 1988-2019, Gaussian, Inc.  All Rights Reserved.
  
 This is part of the Gaussian(R) 16 program.  It is based on
 the Gaussian(R) 09 system (copyright 2009, Gaussian, Inc.),
 the Gaussian(R) 03 system (copyright 2003, Gaussian, Inc.),
 the Gaussian(R) 98 system (copyright 1998, Gaussian, Inc.),
 the Gaussian(R) 94 system (copyright 1995, Gaussian, Inc.),
 the Gaussian 92(TM) system (copyright 1992, Gaussian, Inc.),
 the Gaussian 90(TM) system (copyright 1990, Gaussian, Inc.),
 the Gaussian 88(TM) system (copyright 1988, Gaussian, Inc.),
 the Gaussian 86(TM) system (copyright 1986, Carnegie Mellon
 University), and the Gaussian 82(TM) system (copyright 1983,
 Carnegie Mellon University). Gaussian is a federally registered
 trademark of Gaussian, Inc.
  
 This software contains proprietary and confidential information,
 including trade secrets, belonging to Gaussian, Inc.
  
 This software is provided under written license and may be
 used, copied, transmitted, or stored only in accord with that
 written license.
  
 The following legend is applicable only to US Government
 contracts under FAR:
  
                    RESTRICTED RIGHTS LEGEND
  
 Use, reproduction and disclosure by the US Government is
 subject to restrictions as set forth in subparagraphs (a)
 and (c) of the Commercial Computer Software - Restricted
 Rights clause in FAR 52.227-19.
  
 Gaussian, Inc.
 340 Quinnipiac St., Bldg. 40, Wallingford CT 06492
  
  
 ---------------------------------------------------------------
 Warning -- This program may not be used in any manner that
 competes with the business of Gaussian, Inc. or will provide
 assistance to any competitor of Gaussian, Inc.  The licensee
 of this program is prohibited from giving any competitor of
 Gaussian, Inc. access to this program.  By using this program,
 the user acknowledges that Gaussian, Inc. is engaged in the
 business of creating and licensing software in the field of
 computational chemistry and represents and warrants to the
 licensee that it is not a competitor of Gaussian, Inc. and that
 it will not use this program in any manner prohibited above.
 ---------------------------------------------------------------
  

 Cite this work as:
 Gaussian 16, Revision C.01,
 M. J. Frisch, G. W. Trucks, H. B. Schlegel, G. E. Scuseria, 
 M. A. Robb, J. R. Cheeseman, G. Scalmani, V. Barone, 
 G. A. Petersson, H. Nakatsuji, X. Li, M. Caricato, A. V. Marenich, 
 J. Bloino, B. G. Janesko, R. Gomperts, B. Mennucci, H. P. Hratchian, 
 J. V. Ortiz, A. F. Izmaylov, J. L. Sonnenberg, D. Williams-Young, 
 F. Ding, F. Lipparini, F. Egidi, J. Goings, B. Peng, A. Petrone, 
 T. Henderson, D. Ranasinghe, V. G. Zakrzewski, J. Gao, N. Rega, 
 G. Zheng, W. Liang, M. Hada, M. Ehara, K. Toyota, R. Fukuda, 
 J. Hasegawa, M. Ishida, T. Nakajima, Y. Honda, O. Kitao, H. Nakai, 
 T. Vreven, K. Throssell, J. A. Montgomery, Jr., J. E. Peralta, 
 F. Ogliaro, M. J. Bearpark, J. J. Heyd, E. N. Brothers, K. N. Kudin, 
 V. N. Staroverov, T. A. Keith, R. Kobayashi, J. Normand, 
 K. Raghavachari, A. P. Rendell, J. C. Burant, S. S. Iyengar, 
 J. Tomasi, M. Cossi, J. M. Millam, M. Klene, C. Adamo, R. Cammi, 
 J. W. Ochterski, R. L. Martin, K. Morokuma, O. Farkas, 
 J. B. Foresman, and D. J. Fox, Gaussian, Inc., Wallingford CT, 2019.
 
 ******************************************
 Gaussian 16:  ES64L-G16RevC.01  3-Jul-2019
                31-Dec-2021 
 ******************************************
 SetSPE:  set environment variable "MP_BIND" = "yes"
 SetSPE:  set environment variable "MP_BLIST" = "0,1,2,3,4,5,6,7,8,9,10,11,12,13,14,15"
 ----------------------------------------------------------
 #N M062X/def2svp OPT FREQ=NoRaman Integral(Grid=UltraFine)
 ----------------------------------------------------------
 1/18=20,19=15,26=4,38=1/1,3;
 2/9=110,12=2,17=6,18=5,40=1/2;
 3/5=43,7=101,11=2,25=1,30=1,71=1,74=-55,75=-5/1,2,3;
 4//1;
 5/5=2,38=5/2;
 6/7=2,8=2,9=2,10=2,28=1/1;
 7//1,2,3,16;
 1/18=20,19=15,26=4/3(2);
 2/9=110/2;
 99//99;
 2/9=110/2;
 3/5=43,7=101,11=2,25=1,30=1,71=1,74=-55,75=-5/1,2,3;
 4/5=5,16=3,69=1/1;
 5/5=2,38=5/2;
 7//1,2,3,16;
 1/18=20,19=15,26=4/3(-5);
 2/9=110/2;
 6/7=2,8=2,9=2,10=2,19=2,28=1/1;
 99/9=1/99;
 -----------------------
 Z-isomer - all: def2svp
 -----------------------
 Symbolic Z-matrix:
 Charge =  0 Multiplicity = 1
 C
 C                    1    B1
 C                    2    B2       1    A1
 C                    3    B3       2    A2       1    D1       0
 C                    4    B4       3    A3       2    D2       0
 C                    1    B5       2    A4       3    D3       0
 H                    1    B6       2    A5       3    D4       0
 H                    3    B7       2    A6       1    D5       0
 H                    4    B8       3    A7       2    D6       0
 H                    6    B9       1    A8       2    D7       0
 N                    2    B10      1    A9       6    D8       0
 O                    11   B11      2    A10      1    D9       0
 O                    11   B12      2    A11      1    D10      0
 C                    5    B13      4    A12      3    D11      0
 C                    14   B14      5    A13      4    D12      0
 C                    15   B15      14   A14      5    D13      0
 H                    16   B16      15   A15      14   D14      0
 H                    16   B17      15   A16      14   D15      0
 H                    16   B18      15   A17      14   D16      0
 C                    14   B19      5    A18      4    D17      0
 H                    20   B20      14   A19      5    D18      0
 H                    20   B21      14   A20      5    D19      0
 H                    20   B22      14   A21      5    D20      0
 S                    15   B23      14   A22      5    D21      0
 O                    24   B24      15   A23      14   D22      0
 O                    24   B25      15   A24      14   D23      0
 C                    24   B26      15   A25      14   D24      0
 F                    27   B27      24   A26      15   D25      0
 F                    27   B28      24   A27      15   D26      0
 F                    27   B29      24   A28      15   D27      0
 O                    24   B30      15   A29      14   D28      0
       Variables:
  B1                    1.4014                   
  B2                    1.4014                   
  B3                    1.4014                   
  B4                    1.4014                   
  B5                    1.4014                   
  B6                    1.07                     
  B7                    1.07                     
  B8                    1.07                     
  B9                    1.07                     
  B10                   1.47                     
  B11                   1.1968                   
  B12                   1.1968                   
  B13                   1.54                     
  B14                   1.3552                   
  B15                   1.54                     
  B16                   1.07                     
  B17                   1.07                     
  B18                   1.07                     
  B19                   1.54                     
  B20                   1.07                     
  B21                   1.07                     
  B22                   1.07                     
  B23                   2.53493                  
  B24                   1.4696                   
  B25                   1.4696                   
  B26                   1.78                     
  B27                   1.35                     
  B28                   1.35                     
  B29                   1.35                     
  B30                   1.67                     
  A1                  120.                       
  A2                  120.                       
  A3                  120.                       
  A4                  120.                       
  A5                  120.                       
  A6                  120.                       
  A7                  120.                       
  A8                  120.                       
  A9                  120.                       
  A10                 120.                       
  A11                 120.                       
  A12                 120.                       
  A13                 120.                       
  A14                 120.                       
  A15                 109.47122                  
  A16                 109.47122                  
  A17                 109.47122                  
  A18                 120.                       
  A19                 109.47122                  
  A20                 109.47122                  
  A21                 109.47122                  
  A22                 113.07018                  
  A23                 141.60215                  
  A24                  91.8085                   
  A25                  91.8085                   
  A26                 109.47122                  
  A27                 109.47122                  
  A28                 109.47122                  
  A29                  32.13093                  
  D1                    0.                       
  D2                    0.                       
  D3                    0.                       
  D4                 -180.                       
  D5                 -180.                       
  D6                  180.                       
  D7                  180.                       
  D8                  180.                       
  D9                    0.                       
  D10                 180.                       
  D11                -180.                       
  D12                -180.                       
  D13                 180.                       
  D14                 -30.                       
  D15                  90.                       
  D16                -150.                       
  D17                   0.                       
  D18                 -30.                       
  D19                  90.                       
  D20                -150.                       
  D21                 -42.46273                  
  D22                 109.72798                  
  D23                 -15.49601                  
  D24                -125.04803                  
  D25                 -87.44069                  
  D26                 152.55931                  
  D27                  32.55931                  
  D28                 109.72798                  
 
     9 tetrahedral angles replaced.

 GradGradGradGradGradGradGradGradGradGradGradGradGradGradGradGradGradGrad
 Berny optimization.
 Initialization pass.
                           ----------------------------
                           !    Initial Parameters    !
                           ! (Angstroms and Degrees)  !
 --------------------------                            --------------------------
 ! Name  Definition              Value          Derivative Info.                !
 --------------------------------------------------------------------------------
 ! R1    R(1,2)                  1.4014         estimate D2E/DX2                !
 ! R2    R(1,6)                  1.4014         estimate D2E/DX2                !
 ! R3    R(1,7)                  1.07           estimate D2E/DX2                !
 ! R4    R(2,3)                  1.4014         estimate D2E/DX2                !
 ! R5    R(2,11)                 1.47           estimate D2E/DX2                !
 ! R6    R(3,4)                  1.4014         estimate D2E/DX2                !
 ! R7    R(3,8)                  1.07           estimate D2E/DX2                !
 ! R8    R(4,5)                  1.4014         estimate D2E/DX2                !
 ! R9    R(4,9)                  1.07           estimate D2E/DX2                !
 ! R10   R(5,6)                  1.4014         estimate D2E/DX2                !
 ! R11   R(5,14)                 1.54           estimate D2E/DX2                !
 ! R12   R(6,10)                 1.07           estimate D2E/DX2                !
 ! R13   R(11,12)                1.1968         estimate D2E/DX2                !
 ! R14   R(11,13)                1.1968         estimate D2E/DX2                !
 ! R15   R(14,15)                1.3552         estimate D2E/DX2                !
 ! R16   R(14,20)                1.54           estimate D2E/DX2                !
 ! R17   R(15,16)                1.54           estimate D2E/DX2                !
 ! R18   R(15,31)                1.43           estimate D2E/DX2                !
 ! R19   R(16,17)                1.07           estimate D2E/DX2                !
 ! R20   R(16,18)                1.07           estimate D2E/DX2                !
 ! R21   R(16,19)                1.07           estimate D2E/DX2                !
 ! R22   R(20,21)                1.07           estimate D2E/DX2                !
 ! R23   R(20,22)                1.07           estimate D2E/DX2                !
 ! R24   R(20,23)                1.07           estimate D2E/DX2                !
 ! R25   R(24,25)                1.4696         estimate D2E/DX2                !
 ! R26   R(24,26)                1.4696         estimate D2E/DX2                !
 ! R27   R(24,27)                1.78           estimate D2E/DX2                !
 ! R28   R(24,31)                1.67           estimate D2E/DX2                !
 ! R29   R(27,28)                1.35           estimate D2E/DX2                !
 ! R30   R(27,29)                1.35           estimate D2E/DX2                !
 ! R31   R(27,30)                1.35           estimate D2E/DX2                !
 ! A1    A(2,1,6)              120.0            estimate D2E/DX2                !
 ! A2    A(2,1,7)              120.0            estimate D2E/DX2                !
 ! A3    A(6,1,7)              120.0            estimate D2E/DX2                !
 ! A4    A(1,2,3)              120.0            estimate D2E/DX2                !
 ! A5    A(1,2,11)             120.0            estimate D2E/DX2                !
 ! A6    A(3,2,11)             120.0            estimate D2E/DX2                !
 ! A7    A(2,3,4)              120.0            estimate D2E/DX2                !
 ! A8    A(2,3,8)              120.0            estimate D2E/DX2                !
 ! A9    A(4,3,8)              120.0            estimate D2E/DX2                !
 ! A10   A(3,4,5)              120.0            estimate D2E/DX2                !
 ! A11   A(3,4,9)              120.0            estimate D2E/DX2                !
 ! A12   A(5,4,9)              120.0            estimate D2E/DX2                !
 ! A13   A(4,5,6)              120.0            estimate D2E/DX2                !
 ! A14   A(4,5,14)             120.0            estimate D2E/DX2                !
 ! A15   A(6,5,14)             120.0            estimate D2E/DX2                !
 ! A16   A(1,6,5)              120.0            estimate D2E/DX2                !
 ! A17   A(1,6,10)             120.0            estimate D2E/DX2                !
 ! A18   A(5,6,10)             120.0            estimate D2E/DX2                !
 ! A19   A(2,11,12)            120.0            estimate D2E/DX2                !
 ! A20   A(2,11,13)            120.0            estimate D2E/DX2                !
 ! A21   A(12,11,13)           120.0            estimate D2E/DX2                !
 ! A22   A(5,14,15)            120.0            estimate D2E/DX2                !
 ! A23   A(5,14,20)            120.0            estimate D2E/DX2                !
 ! A24   A(15,14,20)           120.0            estimate D2E/DX2                !
 ! A25   A(14,15,16)           120.0            estimate D2E/DX2                !
 ! A26   A(14,15,31)           120.0            estimate D2E/DX2                !
 ! A27   A(16,15,31)           120.0            estimate D2E/DX2                !
 ! A28   A(15,16,17)           109.4712         estimate D2E/DX2                !
 ! A29   A(15,16,18)           109.4712         estimate D2E/DX2                !
 ! A30   A(15,16,19)           109.4712         estimate D2E/DX2                !
 ! A31   A(17,16,18)           109.4712         estimate D2E/DX2                !
 ! A32   A(17,16,19)           109.4712         estimate D2E/DX2                !
 ! A33   A(18,16,19)           109.4712         estimate D2E/DX2                !
 ! A34   A(14,20,21)           109.4712         estimate D2E/DX2                !
 ! A35   A(14,20,22)           109.4712         estimate D2E/DX2                !
 ! A36   A(14,20,23)           109.4712         estimate D2E/DX2                !
 ! A37   A(21,20,22)           109.4712         estimate D2E/DX2                !
 ! A38   A(21,20,23)           109.4712         estimate D2E/DX2                !
 ! A39   A(22,20,23)           109.4712         estimate D2E/DX2                !
 ! A40   A(25,24,26)           109.4712         estimate D2E/DX2                !
 ! A41   A(25,24,27)           109.4712         estimate D2E/DX2                !
 ! A42   A(25,24,31)           109.4712         estimate D2E/DX2                !
 ! A43   A(26,24,27)           109.4712         estimate D2E/DX2                !
 ! A44   A(26,24,31)           109.4712         estimate D2E/DX2                !
 ! A45   A(27,24,31)           109.4712         estimate D2E/DX2                !
 ! A46   A(24,27,28)           109.4712         estimate D2E/DX2                !
 ! A47   A(24,27,29)           109.4712         estimate D2E/DX2                !
 ! A48   A(24,27,30)           109.4712         estimate D2E/DX2                !
 ! A49   A(28,27,29)           109.4712         estimate D2E/DX2                !
 ! A50   A(28,27,30)           109.4712         estimate D2E/DX2                !
 ! A51   A(29,27,30)           109.4712         estimate D2E/DX2                !
 ! A52   A(15,31,24)           109.4712         estimate D2E/DX2                !
 ! D1    D(6,1,2,3)              0.0            estimate D2E/DX2                !
 ! D2    D(6,1,2,11)           180.0            estimate D2E/DX2                !
 ! D3    D(7,1,2,3)            180.0            estimate D2E/DX2                !
 ! D4    D(7,1,2,11)             0.0            estimate D2E/DX2                !
 ! D5    D(2,1,6,5)              0.0            estimate D2E/DX2                !
 ! D6    D(2,1,6,10)           180.0            estimate D2E/DX2                !
 ! D7    D(7,1,6,5)            180.0            estimate D2E/DX2                !
 ! D8    D(7,1,6,10)             0.0            estimate D2E/DX2                !
 ! D9    D(1,2,3,4)              0.0            estimate D2E/DX2                !
 ! D10   D(1,2,3,8)            180.0            estimate D2E/DX2                !
 ! D11   D(11,2,3,4)           180.0            estimate D2E/DX2                !
 ! D12   D(11,2,3,8)             0.0            estimate D2E/DX2                !
 ! D13   D(1,2,11,12)            0.0            estimate D2E/DX2                !
 ! D14   D(1,2,11,13)          180.0            estimate D2E/DX2                !
 ! D15   D(3,2,11,12)          180.0            estimate D2E/DX2                !
 ! D16   D(3,2,11,13)            0.0            estimate D2E/DX2                !
 ! D17   D(2,3,4,5)              0.0            estimate D2E/DX2                !
 ! D18   D(2,3,4,9)            180.0            estimate D2E/DX2                !
 ! D19   D(8,3,4,5)            180.0            estimate D2E/DX2                !
 ! D20   D(8,3,4,9)              0.0            estimate D2E/DX2                !
 ! D21   D(3,4,5,6)              0.0            estimate D2E/DX2                !
 ! D22   D(3,4,5,14)           180.0            estimate D2E/DX2                !
 ! D23   D(9,4,5,6)            180.0            estimate D2E/DX2                !
 ! D24   D(9,4,5,14)             0.0            estimate D2E/DX2                !
 ! D25   D(4,5,6,1)              0.0            estimate D2E/DX2                !
 ! D26   D(4,5,6,10)           180.0            estimate D2E/DX2                !
 ! D27   D(14,5,6,1)           180.0            estimate D2E/DX2                !
 ! D28   D(14,5,6,10)            0.0            estimate D2E/DX2                !
 ! D29   D(4,5,14,15)          180.0            estimate D2E/DX2                !
 ! D30   D(4,5,14,20)            0.0            estimate D2E/DX2                !
 ! D31   D(6,5,14,15)            0.0            estimate D2E/DX2                !
 ! D32   D(6,5,14,20)          180.0            estimate D2E/DX2                !
 ! D33   D(5,14,15,16)         180.0            estimate D2E/DX2                !
 ! D34   D(5,14,15,31)           0.0            estimate D2E/DX2                !
 ! D35   D(20,14,15,16)          0.0            estimate D2E/DX2                !
 ! D36   D(20,14,15,31)        180.0            estimate D2E/DX2                !
 ! D37   D(5,14,20,21)         -30.0            estimate D2E/DX2                !
 ! D38   D(5,14,20,22)          90.0            estimate D2E/DX2                !
 ! D39   D(5,14,20,23)        -150.0            estimate D2E/DX2                !
 ! D40   D(15,14,20,21)        150.0            estimate D2E/DX2                !
 ! D41   D(15,14,20,22)        -90.0            estimate D2E/DX2                !
 ! D42   D(15,14,20,23)         30.0            estimate D2E/DX2                !
 ! D43   D(14,15,16,17)        -30.0            estimate D2E/DX2                !
 ! D44   D(14,15,16,18)         90.0            estimate D2E/DX2                !
 ! D45   D(14,15,16,19)       -150.0            estimate D2E/DX2                !
 ! D46   D(31,15,16,17)        150.0            estimate D2E/DX2                !
 ! D47   D(31,15,16,18)        -90.0            estimate D2E/DX2                !
 ! D48   D(31,15,16,19)         30.0            estimate D2E/DX2                !
 ! D49   D(14,15,31,24)        -90.0            estimate D2E/DX2                !
 ! D50   D(16,15,31,24)         90.0            estimate D2E/DX2                !
 ! D51   D(25,24,27,28)         60.0            estimate D2E/DX2                !
 ! D52   D(25,24,27,29)        -60.0            estimate D2E/DX2                !
 ! D53   D(25,24,27,30)        180.0            estimate D2E/DX2                !
 ! D54   D(26,24,27,28)        180.0            estimate D2E/DX2                !
 ! D55   D(26,24,27,29)         60.0            estimate D2E/DX2                !
 ! D56   D(26,24,27,30)        -60.0            estimate D2E/DX2                !
 ! D57   D(31,24,27,28)        -60.0            estimate D2E/DX2                !
 ! D58   D(31,24,27,29)        180.0            estimate D2E/DX2                !
 ! D59   D(31,24,27,30)         60.0            estimate D2E/DX2                !
 ! D60   D(25,24,31,15)        180.0            estimate D2E/DX2                !
 ! D61   D(26,24,31,15)         60.0            estimate D2E/DX2                !
 ! D62   D(27,24,31,15)        -60.0            estimate D2E/DX2                !
 --------------------------------------------------------------------------------
 Trust Radius=3.00D-01 FncErr=1.00D-07 GrdErr=1.00D-06 EigMax=2.50D+02 EigMin=1.00D-04
 Number of steps in this run=    155 maximum allowed number of steps=    186.
 GradGradGradGradGradGradGradGradGradGradGradGradGradGradGradGradGradGrad

                          Input orientation:                          
 ---------------------------------------------------------------------
 Center     Atomic      Atomic             Coordinates (Angstroms)
 Number     Number       Type             X           Y           Z
 ---------------------------------------------------------------------
      1          6           0        0.000000    0.000000    0.000000
      2          6           0        0.000000    0.000000    1.401400
      3          6           0        1.213648    0.000000    2.102100
      4          6           0        2.427296    0.000000    1.401400
      5          6           0        2.427296    0.000000    0.000000
      6          6           0        1.213648    0.000000   -0.700700
      7          1           0       -0.926647    0.000000   -0.535000
      8          1           0        1.213648    0.000000    3.172100
      9          1           0        3.353943    0.000000    1.936400
     10          1           0        1.213648    0.000000   -1.770700
     11          7           0       -1.273057    0.000000    2.136400
     12          8           0       -2.309517    0.000000    1.538000
     13          8           0       -1.273057    0.000000    3.333200
     14          6           0        3.760975    0.000000   -0.770000
     15          6           0        3.760975    0.000000   -2.125200
     16          6           0        5.094654    0.000000   -2.895200
     17          1           0        5.840362    0.504403   -2.316929
     18          1           0        5.403537   -1.008806   -3.073533
     19          1           0        4.966711    0.504403   -3.830138
     20          6           0        5.094654    0.000000    0.000000
     21          1           0        4.966711    0.504403    0.934938
     22          1           0        5.403537   -1.008806    0.178333
     23          1           0        5.840362    0.504403   -0.578271
     24         16           0        2.040473   -1.574492   -3.118533
     25          8           0        0.767762   -1.574493   -3.853333
     26          8           0        1.864748   -2.267269   -1.834436
     27          6           0        3.280997   -2.413592   -4.080517
     28          9           0        3.442420   -1.777195   -5.260111
     29          9           0        2.891286   -3.686384   -4.305517
     30          9           0        4.450131   -2.413591   -3.405517
     31          8           0        2.522559   -0.000001   -2.840200
 ---------------------------------------------------------------------
                    Distance matrix (angstroms):
                    1          2          3          4          5
     1  C    0.000000
     2  C    1.401400   0.000000
     3  C    2.427296   1.401400   0.000000
     4  C    2.802800   2.427296   1.401400   0.000000
     5  C    2.427296   2.802800   2.427296   1.401400   0.000000
     6  C    1.401400   2.427296   2.802800   2.427296   1.401400
     7  H    1.070000   2.146700   3.396345   3.872800   3.396345
     8  H    3.396345   2.146700   1.070000   2.146700   3.396345
     9  H    3.872800   3.396345   2.146700   1.070000   2.146700
    10  H    2.146700   3.396345   3.872800   3.396345   2.146700
    11  N    2.486942   1.470000   2.486942   3.772644   4.272800
    12  O    2.774763   2.313553   3.568038   4.738782   4.980245
    13  O    3.568038   2.313553   2.774763   4.174262   4.980245
    14  C    3.838989   4.342800   3.838989   2.548270   1.540000
    15  C    4.319885   5.155758   4.935478   3.770359   2.509019
    16  C    5.859837   6.664554   6.327339   5.057230   3.936621
    17  H    6.303365   6.941918   6.417844   5.072417   4.155912
    18  H    6.297817   7.088083   6.734986   5.468156   4.395714
    19  H    6.292265   7.231295   7.037851   5.837126   4.623095
    20  C    5.094654   5.283883   4.413732   3.013092   2.667358
    21  H    5.079050   5.014003   3.962597   2.630711   2.752664
    22  H    5.499791   5.631322   4.719506   3.372179   3.147618
    23  H    5.890556   6.187354   5.370782   3.977756   3.498263
    24  S    4.045714   5.203110   5.515222   4.801922   3.514813
    25  O    4.232808   5.539017   6.176166   5.731082   4.481212
    26  O    3.461640   4.369030   4.589200   3.990940   2.970206
    27  C    5.765499   6.829478   6.951554   6.050260   4.817141
    28  F    6.532798   7.706128   7.894808   6.968833   5.644260
    29  F    6.362895   7.383621   7.580333   6.809817   5.687019
    30  F    6.101363   6.981084   6.828915   5.746628   4.638408
    31  O    3.798689   4.935025   5.112688   4.242670   2.841797
                    6          7          8          9         10
     6  C    0.000000
     7  H    2.146700   0.000000
     8  H    3.872800   4.280590   0.000000
     9  H    3.396345   4.942800   2.471400   0.000000
    10  H    1.070000   2.471400   4.942800   4.280590   0.000000
    11  N    3.772644   2.693767   2.693767   4.631321   4.631321
    12  O    4.174262   2.491918   3.883680   5.677455   4.833237
    13  O    4.738782   3.883680   2.491918   4.833237   5.677455
    14  C    2.548270   4.693509   4.693509   2.736837   2.736837
    15  C    2.918574   4.950004   5.877947   4.081944   2.571876
    16  C    4.458480   6.467350   7.202384   5.135604   4.040632
    17  H    4.926774   7.015847   7.196551   4.952526   4.686072
    18  H    4.919674   6.894423   7.588201   5.506174   4.502247
    19  H    4.912564   6.770822   7.960605   6.009026   4.310590
    20  C    3.943753   6.045022   5.012427   2.603790   4.265863
    21  H    4.124950   6.094818   4.398272   1.964273   4.654071
    22  H    4.398358   6.449633   5.247427   2.882589   4.729861
    23  H    4.655738   6.785920   5.977139   3.572152   4.804456
    24  S    3.001430   4.237626   6.537181   5.454959   2.231439
    25  O    3.552033   4.044921   7.213498   6.533634   2.648623
    26  O    2.617211   3.823732   5.534423   4.645149   2.359767
    27  C    4.639237   6.008359   7.918321   6.483366   3.928690
    28  F    5.377181   6.676365   8.901013   7.413233   4.505756
    29  F    5.422048   6.510211   8.504037   7.263952   4.777991
    30  F    4.859658   6.555534   7.717855   5.963482   4.355786
    31  O    2.508128   4.148610   6.153129   4.848413   1.690289
                   11         12         13         14         15
    11  N    0.000000
    12  O    1.196800   0.000000
    13  O    1.196800   2.072918   0.000000
    14  C    5.812800   6.494439   6.494439   0.000000
    15  C    6.595659   7.090127   7.425336   1.355200   0.000000
    16  C    8.115710   8.629890   8.907341   2.509019   1.540000
    17  H    8.407574   9.029697   9.098303   2.640315   2.148263
    18  H    8.528658   9.042960   9.308106   3.003658   2.148263
    19  H    8.648046   9.056203   9.513282   3.327561   2.148263
    20  C    6.716543   7.562221   7.187348   1.540000   2.509019
    21  H    6.374374   7.318579   6.703789   2.148263   3.327561
    22  H    7.030549   7.896681   7.453038   2.148263   3.003658
    23  H    7.630505   8.435256   8.133558   2.148263   2.640315
    24  S    6.408809   6.563896   7.421817   3.309798   2.534929
    25  O    6.520803   6.404307   7.634804   4.576604   3.798000
    26  O    5.545617   5.825660   6.456841   3.141529   2.969971
    27  C    8.075574   8.285348   9.029287   4.124964   3.143098
    28  F    8.950001   9.080612   9.961885   4.839524   3.617674
    29  F    8.510551   8.647801   9.448872   5.181280   4.370305
    30  F    8.324251   8.715309   9.164639   3.639547   2.817724
    31  O    6.258854   6.520551   7.246901   2.412344   1.430000
                   16         17         18         19         20
    16  C    0.000000
    17  H    1.070000   0.000000
    18  H    1.070000   1.747303   0.000000
    19  H    1.070000   1.747303   1.747303   0.000000
    20  C    2.895200   2.485692   3.249570   3.865326   0.000000
    21  H    3.865326   3.367180   4.306792   4.765075   1.070000
    22  H    3.249570   2.950754   3.251867   4.306792   1.070000
    23  H    2.485692   1.738658   2.950754   3.367180   1.070000
    24  S    3.443389   4.404945   3.410605   3.659379   4.640291
    25  O    4.703089   5.693297   4.734818   4.685459   6.004099
    26  O    4.086321   4.870366   3.955011   4.613801   4.351776
    27  C    3.243417   4.263248   2.737264   3.379203   5.075962
    28  F    3.388378   4.429236   3.036037   3.094184   5.792846
    29  F    4.520315   5.496747   3.872804   4.700645   6.081261
    30  F    2.549755   3.410638   1.729918   2.993634   4.223550
    31  O    2.572683   3.396477   3.061399   2.684824   3.831763
                   21         22         23         24         25
    21  H    0.000000
    22  H    1.747303   0.000000
    23  H    1.747303   1.747303   0.000000
    24  S    5.414361   4.743367   5.021345   0.000000
    25  O    6.699293   6.169664   6.385853   1.469600   0.000000
    26  O    4.997376   4.261219   5.006558   1.469600   2.399847
    27  C    6.042442   4.961492   5.227884   1.780000   2.659333
    28  F    6.775528   5.832073   5.733711   2.567664   3.028846
    29  F    7.023706   5.795320   6.336569   2.567664   3.028846
    30  F    5.255576   3.965651   4.294269   2.567664   3.803218
    31  O    4.525480   4.292932   4.047044   1.670000   2.566082
                   26         27         28         29         30
    26  O    0.000000
    27  C    2.659333   0.000000
    28  F    3.803218   1.350000   0.000000
    29  F    3.028846   1.350000   2.204541   0.000000
    30  F    3.028846   1.350000   2.204541   2.204541   0.000000
    31  O    2.566082   2.817629   3.140149   3.984035   3.140149
                   31
    31  O    0.000000
 Stoichiometry    C11H10F3NO5S
 Framework group  C1[X(C11H10F3NO5S)]
 Deg. of freedom    87
 Full point group                 C1      NOp   1
 Largest Abelian subgroup         C1      NOp   1
 Largest concise Abelian subgroup C1      NOp   1
                         Standard orientation:                         
 ---------------------------------------------------------------------
 Center     Atomic      Atomic             Coordinates (Angstroms)
 Number     Number       Type             X           Y           Z
 ---------------------------------------------------------------------
      1          6           0       -2.403571   -0.758517   -0.586418
      2          6           0       -3.516905   -0.141688    0.000038
      3          6           0       -3.405929    1.154013    0.522308
      4          6           0       -2.181619    1.832885    0.458122
      5          6           0       -1.068284    1.216055   -0.128334
      6          6           0       -1.179260   -0.079645   -0.650604
      7          1           0       -2.488303   -1.747813   -0.985183
      8          1           0       -4.255984    1.624976    0.970080
      9          1           0       -2.096886    2.822181    0.856887
     10          1           0       -0.329205   -0.550608   -1.098376
     11          7           0       -4.801146   -0.853791    0.067366
     12          8           0       -4.895920   -1.960323   -0.378654
     13          8           0       -5.751937   -0.327017    0.568201
     14          6           0        0.277111    1.962068   -0.198868
     15          6           0        1.353742    1.365574   -0.765991
     16          6           0        2.699138    2.111587   -0.836525
     17          1           0        2.520144    3.164481   -0.901912
     18          1           0        3.270361    1.900878    0.043365
     19          1           0        3.241697    1.787735   -1.700035
     20          6           0        0.399063    3.385915    0.375055
     21          1           0       -0.543889    3.885093    0.294048
     22          1           0        0.686934    3.332194    1.404202
     23          1           0        1.138877    3.929755   -0.174321
     24         16           0        1.601632   -1.069776   -0.107592
     25          8           0        1.485255   -2.428533   -0.655278
     26          8           0        0.663113   -0.910879    1.012076
     27          6           0        3.264253   -0.803020    0.469410
     28          9           0        4.126393   -0.948986   -0.559137
     29          9           0        3.556185   -1.702917    1.432458
     30          9           0        3.371159    0.445158    0.972524
     31          8           0        1.240502    0.043430   -1.298918
 ---------------------------------------------------------------------
 Rotational constants (GHZ):           0.5746129           0.1644331           0.1395681
 Standard basis: def2SVP (5D, 7F)
 There are   369 symmetry adapted cartesian basis functions of A   symmetry.
 There are   348 symmetry adapted basis functions of A   symmetry.
   348 basis functions,   607 primitive gaussians,   369 cartesian basis functions
    83 alpha electrons       83 beta electrons
       nuclear repulsion energy      2025.9175103833 Hartrees.
 NAtoms=   31 NActive=   31 NUniq=   31 SFac= 1.00D+00 NAtFMM=   60 NAOKFM=F Big=F
 Integral buffers will be    131072 words long.
 Raffenetti 2 integral format.
 Two-electron integral symmetry is turned on.
 One-electron integrals computed using PRISM.
   1 Symmetry operations used in ECPInt.
 ECPInt:  NShTT=   12561 NPrTT=   47899 LenC2=   11129 LenP2D=   29121.
 LDataN:  DoStor=T MaxTD1= 4 Len=   56
 NBasis=   348 RedAO= T EigKep=  2.55D-04  NBF=   348
 NBsUse=   348 1.00D-06 EigRej= -1.00D+00 NBFU=   348
 ExpMin= 1.22D-01 ExpMax= 9.18D+03 ExpMxC= 1.38D+03 IAcc=3 IRadAn=         5 AccDes= 0.00D+00
 Harris functional with IExCor= 1009 and IRadAn=       5 diagonalized for initial guess.
 HarFok:  IExCor= 1009 AccDes= 0.00D+00 IRadAn=         5 IDoV= 1 UseB2=F ITyADJ=14
 ICtDFT=  3500011 ScaDFX=  1.000000  1.000000  1.000000  1.000000
 FoFCou: FMM=F IPFlag=           0 FMFlag=      100000 FMFlg1=           0
         NFxFlg=           0 DoJE=T BraDBF=F KetDBF=T FulRan=T
         wScrn=  0.000000 ICntrl=       500 IOpCl=  0 I1Cent=   200000004 NGrid=           0
         NMat0=    1 NMatS0=      1 NMatT0=    0 NMatD0=    1 NMtDS0=    0 NMtDT0=    0
 Petite list used in FoFCou.
 Requested convergence on RMS density matrix=1.00D-08 within 128 cycles.
 Requested convergence on MAX density matrix=1.00D-06.
 Requested convergence on             energy=1.00D-06.
 No special actions if energy rises.
 Integral accuracy reduced to 1.0D-05 until final iterations.
 Initial convergence to 1.0D-05 achieved.  Increase integral accuracy.
 SCF Done:  E(RM062X) =  -1552.04149926     A.U. after   16 cycles
            NFock= 16  Conv=0.43D-08     -V/T= 2.0061

 **********************************************************************

            Population analysis using the SCF Density.

 **********************************************************************

 Orbital symmetries:
       Occupied  (A) (A) (A) (A) (A) (A) (A) (A) (A) (A) (A) (A)
                 (A) (A) (A) (A) (A) (A) (A) (A) (A) (A) (A) (A)
                 (A) (A) (A) (A) (A) (A) (A) (A) (A) (A) (A) (A)
                 (A) (A) (A) (A) (A) (A) (A) (A) (A) (A) (A) (A)
                 (A) (A) (A) (A) (A) (A) (A) (A) (A) (A) (A) (A)
                 (A) (A) (A) (A) (A) (A) (A) (A) (A) (A) (A) (A)
                 (A) (A) (A) (A) (A) (A) (A) (A) (A) (A) (A)
       Virtual   (A) (A) (A) (A) (A) (A) (A) (A) (A) (A) (A) (A)
                 (A) (A) (A) (A) (A) (A) (A) (A) (A) (A) (A) (A)
                 (A) (A) (A) (A) (A) (A) (A) (A) (A) (A) (A) (A)
                 (A) (A) (A) (A) (A) (A) (A) (A) (A) (A) (A) (A)
                 (A) (A) (A) (A) (A) (A) (A) (A) (A) (A) (A) (A)
                 (A) (A) (A) (A) (A) (A) (A) (A) (A) (A) (A) (A)
                 (A) (A) (A) (A) (A) (A) (A) (A) (A) (A) (A) (A)
                 (A) (A) (A) (A) (A) (A) (A) (A) (A) (A) (A) (A)
                 (A) (A) (A) (A) (A) (A) (A) (A) (A) (A) (A) (A)
                 (A) (A) (A) (A) (A) (A) (A) (A) (A) (A) (A) (A)
                 (A) (A) (A) (A) (A) (A) (A) (A) (A) (A) (A) (A)
                 (A) (A) (A) (A) (A) (A) (A) (A) (A) (A) (A) (A)
                 (A) (A) (A) (A) (A) (A) (A) (A) (A) (A) (A) (A)
                 (A) (A) (A) (A) (A) (A) (A) (A) (A) (A) (A) (A)
                 (A) (A) (A) (A) (A) (A) (A) (A) (A) (A) (A) (A)
                 (A) (A) (A) (A) (A) (A) (A) (A) (A) (A) (A) (A)
                 (A) (A) (A) (A) (A) (A) (A) (A) (A) (A) (A) (A)
                 (A) (A) (A) (A) (A) (A) (A) (A) (A) (A) (A) (A)
                 (A) (A) (A) (A) (A) (A) (A) (A) (A) (A) (A) (A)
                 (A) (A) (A) (A) (A) (A) (A) (A) (A) (A) (A) (A)
                 (A) (A) (A) (A) (A) (A) (A) (A) (A) (A) (A) (A)
                 (A) (A) (A) (A) (A) (A) (A) (A) (A) (A) (A) (A)
                 (A)
 The electronic state is 1-A.
 Alpha  occ. eigenvalues --  -90.20023 -25.36048 -25.35470 -25.35418 -19.75405
 Alpha  occ. eigenvalues --  -19.67356 -19.66880 -19.65018 -19.65005 -14.99860
 Alpha  occ. eigenvalues --  -10.89485 -10.65770 -10.62129 -10.61172 -10.60021
 Alpha  occ. eigenvalues --  -10.58867 -10.58555 -10.58344 -10.58213 -10.57888
 Alpha  occ. eigenvalues --  -10.57257  -8.53405  -6.45861  -6.45703  -6.45668
 Alpha  occ. eigenvalues --   -1.50974  -1.42199  -1.41414  -1.36746  -1.30444
 Alpha  occ. eigenvalues --   -1.20841  -1.16351  -1.14090  -0.99122  -0.94938
 Alpha  occ. eigenvalues --   -0.92581  -0.90170  -0.86137  -0.84856  -0.82799
 Alpha  occ. eigenvalues --   -0.80091  -0.77685  -0.76143  -0.75449  -0.73969
 Alpha  occ. eigenvalues --   -0.71422  -0.67621  -0.65406  -0.64479  -0.64266
 Alpha  occ. eigenvalues --   -0.63685  -0.63134  -0.62294  -0.61069  -0.60856
 Alpha  occ. eigenvalues --   -0.59789  -0.59536  -0.59000  -0.58072  -0.57290
 Alpha  occ. eigenvalues --   -0.55399  -0.54985  -0.53312  -0.53179  -0.51748
 Alpha  occ. eigenvalues --   -0.51323  -0.49883  -0.49454  -0.47433  -0.47256
 Alpha  occ. eigenvalues --   -0.46710  -0.46582  -0.44507  -0.43225  -0.42992
 Alpha  occ. eigenvalues --   -0.40897  -0.40303  -0.38569  -0.37196  -0.36614
 Alpha  occ. eigenvalues --   -0.36267  -0.32827  -0.30681
 Alpha virt. eigenvalues --   -0.05800  -0.01988   0.00290   0.00977   0.04071
 Alpha virt. eigenvalues --    0.06982   0.07712   0.08547   0.09854   0.10984
 Alpha virt. eigenvalues --    0.12236   0.13372   0.14551   0.15639   0.16881
 Alpha virt. eigenvalues --    0.18365   0.18941   0.19457   0.20329   0.20885
 Alpha virt. eigenvalues --    0.21669   0.22111   0.22441   0.24030   0.24736
 Alpha virt. eigenvalues --    0.26446   0.29345   0.30512   0.31229   0.32564
 Alpha virt. eigenvalues --    0.32730   0.34211   0.35725   0.38702   0.39222
 Alpha virt. eigenvalues --    0.40218   0.40285   0.41180   0.43822   0.44483
 Alpha virt. eigenvalues --    0.45631   0.45732   0.46359   0.48803   0.49046
 Alpha virt. eigenvalues --    0.49966   0.50616   0.51514   0.52573   0.54101
 Alpha virt. eigenvalues --    0.55367   0.56098   0.58291   0.58797   0.59979
 Alpha virt. eigenvalues --    0.61204   0.62785   0.63354   0.64227   0.65347
 Alpha virt. eigenvalues --    0.65906   0.67033   0.67800   0.68071   0.68896
 Alpha virt. eigenvalues --    0.69809   0.69832   0.70430   0.71075   0.71425
 Alpha virt. eigenvalues --    0.72453   0.72917   0.73373   0.73887   0.74796
 Alpha virt. eigenvalues --    0.75652   0.76165   0.78022   0.79652   0.80988
 Alpha virt. eigenvalues --    0.81551   0.83300   0.83999   0.84643   0.85870
 Alpha virt. eigenvalues --    0.86299   0.87923   0.90191   0.90362   0.92399
 Alpha virt. eigenvalues --    0.96749   0.98500   1.00036   1.00367   1.02603
 Alpha virt. eigenvalues --    1.03472   1.04374   1.06107   1.06742   1.07595
 Alpha virt. eigenvalues --    1.09266   1.10024   1.10618   1.12620   1.14687
 Alpha virt. eigenvalues --    1.14970   1.15608   1.16559   1.18472   1.20061
 Alpha virt. eigenvalues --    1.21734   1.22197   1.23735   1.24884   1.25711
 Alpha virt. eigenvalues --    1.26681   1.27261   1.28277   1.29527   1.30494
 Alpha virt. eigenvalues --    1.30876   1.31661   1.33762   1.34625   1.36369
 Alpha virt. eigenvalues --    1.37224   1.38437   1.39937   1.41099   1.41477
 Alpha virt. eigenvalues --    1.43016   1.44912   1.45912   1.47392   1.49239
 Alpha virt. eigenvalues --    1.50483   1.52682   1.54011   1.55447   1.56720
 Alpha virt. eigenvalues --    1.57843   1.59019   1.61227   1.62324   1.64289
 Alpha virt. eigenvalues --    1.66560   1.67946   1.72502   1.72978   1.73271
 Alpha virt. eigenvalues --    1.74464   1.75202   1.76553   1.77962   1.78525
 Alpha virt. eigenvalues --    1.80094   1.80434   1.81697   1.83591   1.83887
 Alpha virt. eigenvalues --    1.84634   1.84909   1.86338   1.87422   1.88445
 Alpha virt. eigenvalues --    1.89566   1.90810   1.93706   1.94035   1.94848
 Alpha virt. eigenvalues --    1.96126   1.98282   1.98975   2.00421   2.01524
 Alpha virt. eigenvalues --    2.03138   2.04783   2.06924   2.08686   2.10299
 Alpha virt. eigenvalues --    2.10596   2.11584   2.13029   2.14453   2.16691
 Alpha virt. eigenvalues --    2.18231   2.19236   2.22066   2.27091   2.27913
 Alpha virt. eigenvalues --    2.30052   2.33073   2.34217   2.36130   2.36328
 Alpha virt. eigenvalues --    2.38852   2.40891   2.44135   2.47134   2.48922
 Alpha virt. eigenvalues --    2.51015   2.52067   2.55226   2.55602   2.57839
 Alpha virt. eigenvalues --    2.58913   2.61417   2.62639   2.64932   2.66849
 Alpha virt. eigenvalues --    2.67574   2.68544   2.68667   2.68803   2.69688
 Alpha virt. eigenvalues --    2.71473   2.72706   2.74005   2.74605   2.76940
 Alpha virt. eigenvalues --    2.78462   2.79653   2.80629   2.83334   2.83600
 Alpha virt. eigenvalues --    2.85724   2.88717   2.90100   2.91543   2.93040
 Alpha virt. eigenvalues --    2.94714   2.95992   2.97856   2.99526   3.00733
 Alpha virt. eigenvalues --    3.01455   3.02617   3.05577   3.06013   3.06136
 Alpha virt. eigenvalues --    3.06540   3.07972   3.10047   3.10697   3.14032
 Alpha virt. eigenvalues --    3.16206   3.17278   3.17940   3.18746   3.21475
 Alpha virt. eigenvalues --    3.32691   3.35275   3.36937   3.37566   3.42800
 Alpha virt. eigenvalues --    3.45448   3.50029   3.52919   3.53777   3.61919
 Alpha virt. eigenvalues --    3.65513   3.83079   3.84137   3.84517   3.86248
          Condensed to atoms (all electrons):
               1          2          3          4          5          6
     1  C    5.164673   0.206234   0.046752  -0.141159   0.112516   0.249077
     2  C    0.206234   5.392517   0.234700   0.116240  -0.190729   0.126482
     3  C    0.046752   0.234700   5.142962   0.260629   0.104981  -0.143950
     4  C   -0.141159   0.116240   0.260629   5.199566   0.246574   0.038516
     5  C    0.112516  -0.190729   0.104981   0.246574   5.308077   0.227989
     6  C    0.249077   0.126482  -0.143950   0.038516   0.227989   5.291225
     7  H    0.456344  -0.074069   0.014825  -0.002344   0.016813  -0.059649
     8  H    0.014934  -0.067622   0.450308  -0.060929   0.016136  -0.002500
     9  H   -0.001928   0.015284  -0.061228   0.455486  -0.068925   0.013718
    10  H   -0.061878   0.015426  -0.002132   0.013499  -0.062770   0.432899
    11  N   -0.060114   0.267245  -0.061661   0.005971  -0.000527   0.006163
    12  O    0.018981  -0.113917   0.005341   0.000018  -0.000014   0.002012
    13  O    0.005261  -0.114517   0.019161   0.001839  -0.000011   0.000016
    14  C    0.009001   0.002379   0.009931  -0.073692   0.286318  -0.049767
    15  C    0.000793  -0.000367  -0.000005   0.012782  -0.019099  -0.046798
    16  C    0.000017  -0.000001   0.000003  -0.000272   0.007268   0.000495
    17  H   -0.000001   0.000000  -0.000000   0.000001   0.000395  -0.000005
    18  H    0.000001  -0.000000  -0.000000   0.000007  -0.000333   0.000040
    19  H   -0.000000   0.000000  -0.000000   0.000008  -0.000253   0.000014
    20  C   -0.000113  -0.000005   0.000422  -0.008538  -0.049511   0.009006
    21  H    0.000036  -0.000088   0.001055   0.006312  -0.019544  -0.000757
    22  H    0.000007  -0.000001   0.000044   0.001581  -0.002495  -0.000370
    23  H    0.000002   0.000003  -0.000036   0.000218   0.008095  -0.000088
    24  S   -0.000372   0.000098  -0.000035   0.000573   0.008060  -0.012345
    25  O   -0.000529  -0.000000   0.000000  -0.000001   0.000333  -0.007831
    26  O    0.004249  -0.001102   0.000383  -0.002616  -0.002149  -0.004516
    27  C   -0.000002  -0.000000   0.000000  -0.000000   0.000017  -0.000321
    28  F    0.000000   0.000000   0.000000  -0.000000  -0.000000   0.000003
    29  F   -0.000000   0.000000   0.000000  -0.000000   0.000001   0.000001
    30  F    0.000000  -0.000000   0.000000   0.000000  -0.000021   0.000002
    31  O    0.000352  -0.000044  -0.000030   0.000221  -0.001216  -0.052458
               7          8          9         10         11         12
     1  C    0.456344   0.014934  -0.001928  -0.061878  -0.060114   0.018981
     2  C   -0.074069  -0.067622   0.015284   0.015426   0.267245  -0.113917
     3  C    0.014825   0.450308  -0.061228  -0.002132  -0.061661   0.005341
     4  C   -0.002344  -0.060929   0.455486   0.013499   0.005971   0.000018
     5  C    0.016813   0.016136  -0.068925  -0.062770  -0.000527  -0.000014
     6  C   -0.059649  -0.002500   0.013718   0.432899   0.006163   0.002012
     7  H    0.623891  -0.000201   0.000025  -0.012540  -0.014227   0.018610
     8  H   -0.000201   0.627970  -0.012409   0.000026  -0.014503   0.000479
     9  H    0.000025  -0.012409   0.669078  -0.000168  -0.000096   0.000001
    10  H   -0.012540   0.000026  -0.000168   0.683539  -0.000087  -0.000045
    11  N   -0.014227  -0.014503  -0.000096  -0.000087   5.961758   0.343115
    12  O    0.018610   0.000479   0.000001  -0.000045   0.343115   8.119952
    13  O    0.000478   0.019118  -0.000027   0.000001   0.340802  -0.143753
    14  C   -0.000405  -0.000285  -0.023958  -0.013552   0.000013  -0.000000
    15  C    0.000097   0.000006   0.000516  -0.009138  -0.000000   0.000000
    16  C    0.000000  -0.000000   0.000006  -0.000267   0.000000   0.000000
    17  H   -0.000000  -0.000000  -0.000007   0.000018  -0.000000   0.000000
    18  H    0.000000   0.000000   0.000000  -0.000081  -0.000000  -0.000000
    19  H   -0.000000   0.000000   0.000000   0.000177  -0.000000   0.000000
    20  C    0.000001   0.000010   0.005843   0.000020  -0.000000  -0.000000
    21  H    0.000000   0.000055  -0.000572   0.000045  -0.000000   0.000000
    22  H   -0.000000  -0.000001   0.000201  -0.000076  -0.000000  -0.000000
    23  H   -0.000000  -0.000000   0.000076   0.000036   0.000000   0.000000
    24  S    0.000068  -0.000000  -0.000006  -0.008250   0.000000   0.000000
    25  O    0.000152  -0.000000  -0.000000   0.018401  -0.000000  -0.000000
    26  O    0.000292   0.000001  -0.000015  -0.019045  -0.000000  -0.000000
    27  C    0.000002   0.000000  -0.000000   0.001850  -0.000000   0.000000
    28  F    0.000000  -0.000000   0.000000  -0.000082   0.000000   0.000000
    29  F   -0.000000   0.000000   0.000000  -0.000026  -0.000000   0.000000
    30  F   -0.000000  -0.000000  -0.000000  -0.000201   0.000000   0.000000
    31  O    0.000074  -0.000000  -0.000001  -0.018552   0.000000   0.000000
              13         14         15         16         17         18
     1  C    0.005261   0.009001   0.000793   0.000017  -0.000001   0.000001
     2  C   -0.114517   0.002379  -0.000367  -0.000001   0.000000  -0.000000
     3  C    0.019161   0.009931  -0.000005   0.000003  -0.000000  -0.000000
     4  C    0.001839  -0.073692   0.012782  -0.000272   0.000001   0.000007
     5  C   -0.000011   0.286318  -0.019099   0.007268   0.000395  -0.000333
     6  C    0.000016  -0.049767  -0.046798   0.000495  -0.000005   0.000040
     7  H    0.000478  -0.000405   0.000097   0.000000  -0.000000   0.000000
     8  H    0.019118  -0.000285   0.000006  -0.000000  -0.000000   0.000000
     9  H   -0.000027  -0.023958   0.000516   0.000006  -0.000007   0.000000
    10  H    0.000001  -0.013552  -0.009138  -0.000267   0.000018  -0.000081
    11  N    0.340802   0.000013  -0.000000   0.000000  -0.000000  -0.000000
    12  O   -0.143753  -0.000000   0.000000   0.000000   0.000000  -0.000000
    13  O    8.127496   0.000000  -0.000000  -0.000000   0.000000   0.000000
    14  C    0.000000   5.153787   0.491954  -0.063479  -0.024993  -0.007563
    15  C   -0.000000   0.491954   5.287804   0.396085   0.007256  -0.022379
    16  C   -0.000000  -0.063479   0.396085   4.531179   0.384727   0.405700
    17  H    0.000000  -0.024993   0.007256   0.384727   0.608222  -0.013631
    18  H    0.000000  -0.007563  -0.022379   0.405700  -0.013631   0.561224
    19  H    0.000000   0.010293  -0.025881   0.382058  -0.009496  -0.017322
    20  C    0.000000   0.408520  -0.074177  -0.001284  -0.001282   0.002055
    21  H    0.000000  -0.002767   0.009471   0.000468   0.000499  -0.000091
    22  H   -0.000000  -0.006264  -0.007935   0.002710  -0.001492   0.001064
    23  H    0.000000  -0.003415  -0.024597   0.002053  -0.003051  -0.001922
    24  S    0.000000  -0.007393  -0.093070  -0.008159   0.000336   0.002040
    25  O   -0.000000  -0.000046   0.001982  -0.000063   0.000001  -0.000006
    26  O   -0.000000   0.005480   0.004767   0.000128  -0.000000   0.000315
    27  C    0.000000   0.002233  -0.003564   0.008719  -0.000219  -0.000278
    28  F    0.000000  -0.000015  -0.001323   0.001472   0.000045   0.000127
    29  F   -0.000000  -0.000011  -0.000003   0.000003   0.000002  -0.000005
    30  F    0.000000  -0.002584   0.010534  -0.035043   0.001150   0.002035
    31  O   -0.000000  -0.068224   0.244024  -0.044356   0.002463   0.000951
              19         20         21         22         23         24
     1  C   -0.000000  -0.000113   0.000036   0.000007   0.000002  -0.000372
     2  C    0.000000  -0.000005  -0.000088  -0.000001   0.000003   0.000098
     3  C   -0.000000   0.000422   0.001055   0.000044  -0.000036  -0.000035
     4  C    0.000008  -0.008538   0.006312   0.001581   0.000218   0.000573
     5  C   -0.000253  -0.049511  -0.019544  -0.002495   0.008095   0.008060
     6  C    0.000014   0.009006  -0.000757  -0.000370  -0.000088  -0.012345
     7  H   -0.000000   0.000001   0.000000  -0.000000  -0.000000   0.000068
     8  H    0.000000   0.000010   0.000055  -0.000001  -0.000000  -0.000000
     9  H    0.000000   0.005843  -0.000572   0.000201   0.000076  -0.000006
    10  H    0.000177   0.000020   0.000045  -0.000076   0.000036  -0.008250
    11  N   -0.000000  -0.000000  -0.000000  -0.000000   0.000000   0.000000
    12  O    0.000000  -0.000000   0.000000  -0.000000   0.000000   0.000000
    13  O    0.000000   0.000000   0.000000  -0.000000   0.000000   0.000000
    14  C    0.010293   0.408520  -0.002767  -0.006264  -0.003415  -0.007393
    15  C   -0.025881  -0.074177   0.009471  -0.007935  -0.024597  -0.093070
    16  C    0.382058  -0.001284   0.000468   0.002710   0.002053  -0.008159
    17  H   -0.009496  -0.001282   0.000499  -0.001492  -0.003051   0.000336
    18  H   -0.017322   0.002055  -0.000091   0.001064  -0.001922   0.002040
    19  H    0.599603   0.000536   0.000001  -0.000125   0.000254  -0.001393
    20  C    0.000536   4.486616   0.376367   0.389207   0.392856  -0.000069
    21  H    0.000001   0.376367   0.605774  -0.019198  -0.014334  -0.000027
    22  H   -0.000125   0.389207  -0.019198   0.586627  -0.015410   0.000145
    23  H    0.000254   0.392856  -0.014334  -0.015410   0.615572  -0.000039
    24  S   -0.001393  -0.000069  -0.000027   0.000145  -0.000039  14.144475
    25  O   -0.000009   0.000000   0.000000   0.000000   0.000000   0.421385
    26  O    0.000027  -0.000451   0.000004   0.000193  -0.000008   0.399989
    27  C    0.002233   0.000009  -0.000001  -0.000003   0.000004   0.213418
    28  F    0.001265  -0.000001   0.000000   0.000000  -0.000000  -0.042850
    29  F    0.000013  -0.000000  -0.000000   0.000000  -0.000000  -0.038255
    30  F   -0.000701  -0.000161   0.000000   0.000132   0.000001  -0.046402
    31  O    0.001468   0.003007  -0.000084  -0.000017  -0.000051   0.164316
              25         26         27         28         29         30
     1  C   -0.000529   0.004249  -0.000002   0.000000  -0.000000   0.000000
     2  C   -0.000000  -0.001102  -0.000000   0.000000   0.000000  -0.000000
     3  C    0.000000   0.000383   0.000000   0.000000   0.000000   0.000000
     4  C   -0.000001  -0.002616  -0.000000  -0.000000  -0.000000   0.000000
     5  C    0.000333  -0.002149   0.000017  -0.000000   0.000001  -0.000021
     6  C   -0.007831  -0.004516  -0.000321   0.000003   0.000001   0.000002
     7  H    0.000152   0.000292   0.000002   0.000000  -0.000000  -0.000000
     8  H   -0.000000   0.000001   0.000000  -0.000000   0.000000  -0.000000
     9  H   -0.000000  -0.000015  -0.000000   0.000000   0.000000  -0.000000
    10  H    0.018401  -0.019045   0.001850  -0.000082  -0.000026  -0.000201
    11  N   -0.000000  -0.000000  -0.000000   0.000000  -0.000000   0.000000
    12  O   -0.000000  -0.000000   0.000000   0.000000   0.000000   0.000000
    13  O   -0.000000  -0.000000   0.000000   0.000000  -0.000000   0.000000
    14  C   -0.000046   0.005480   0.002233  -0.000015  -0.000011  -0.002584
    15  C    0.001982   0.004767  -0.003564  -0.001323  -0.000003   0.010534
    16  C   -0.000063   0.000128   0.008719   0.001472   0.000003  -0.035043
    17  H    0.000001  -0.000000  -0.000219   0.000045   0.000002   0.001150
    18  H   -0.000006   0.000315  -0.000278   0.000127  -0.000005   0.002035
    19  H   -0.000009   0.000027   0.002233   0.001265   0.000013  -0.000701
    20  C    0.000000  -0.000451   0.000009  -0.000001  -0.000000  -0.000161
    21  H    0.000000   0.000004  -0.000001   0.000000  -0.000000   0.000000
    22  H    0.000000   0.000193  -0.000003   0.000000   0.000000   0.000132
    23  H    0.000000  -0.000008   0.000004  -0.000000  -0.000000   0.000001
    24  S    0.421385   0.399989   0.213418  -0.042850  -0.038255  -0.046402
    25  O    8.094216  -0.063308  -0.012671  -0.000094  -0.000568   0.000323
    26  O   -0.063308   8.162793  -0.018950   0.000369  -0.000190   0.000580
    27  C   -0.012671  -0.018950   4.227128   0.328095   0.352484   0.301384
    28  F   -0.000094   0.000369   0.328095   8.956615  -0.039230  -0.038341
    29  F   -0.000568  -0.000190   0.352484  -0.039230   8.917184  -0.038122
    30  F    0.000323   0.000580   0.301384  -0.038341  -0.038122   9.013082
    31  O   -0.030136  -0.040614  -0.016887   0.000527   0.000146   0.000164
              31
     1  C    0.000352
     2  C   -0.000044
     3  C   -0.000030
     4  C    0.000221
     5  C   -0.001216
     6  C   -0.052458
     7  H    0.000074
     8  H   -0.000000
     9  H   -0.000001
    10  H   -0.018552
    11  N    0.000000
    12  O    0.000000
    13  O   -0.000000
    14  C   -0.068224
    15  C    0.244024
    16  C   -0.044356
    17  H    0.002463
    18  H    0.000951
    19  H    0.001468
    20  C    0.003007
    21  H   -0.000084
    22  H   -0.000017
    23  H   -0.000051
    24  S    0.164316
    25  O   -0.030136
    26  O   -0.040614
    27  C   -0.016887
    28  F    0.000527
    29  F    0.000146
    30  F    0.000164
    31  O    8.285047
 Mulliken charges:
               1
     1  C   -0.023135
     2  C    0.185852
     3  C   -0.022421
     4  C   -0.070490
     5  C    0.074027
     6  C   -0.016301
     7  H    0.031763
     8  H    0.029408
     9  H    0.009105
    10  H    0.042952
    11  N    0.226149
    12  O   -0.250781
    13  O   -0.255865
    14  C   -0.031497
    15  C   -0.139733
    16  C    0.029834
    17  H    0.049063
    18  H    0.088050
    19  H    0.057229
    20  C    0.061115
    21  H    0.057375
    22  H    0.071476
    23  H    0.043782
    24  S    0.903763
    25  O   -0.421531
    26  O   -0.426606
    27  C    0.615320
    28  F   -0.166581
    29  F   -0.153422
    30  F   -0.167813
    31  O   -0.430089
 Sum of Mulliken charges =  -0.00000
 Mulliken charges with hydrogens summed into heavy atoms:
               1
     1  C    0.008627
     2  C    0.185852
     3  C    0.006987
     4  C   -0.061386
     5  C    0.074027
     6  C    0.026651
    11  N    0.226149
    12  O   -0.250781
    13  O   -0.255865
    14  C   -0.031497
    15  C   -0.139733
    16  C    0.224177
    20  C    0.233749
    24  S    0.903763
    25  O   -0.421531
    26  O   -0.426606
    27  C    0.615320
    28  F   -0.166581
    29  F   -0.153422
    30  F   -0.167813
    31  O   -0.430089
 Electronic spatial extent (au):  <R**2>=           7223.9721
 Charge=             -0.0000 electrons
 Dipole moment (field-independent basis, Debye):
    X=              6.9245    Y=              6.2895    Z=              0.0581  Tot=              9.3547
 Quadrupole moment (field-independent basis, Debye-Ang):
   XX=           -146.5939   YY=           -122.8336   ZZ=           -127.9194
   XY=             -5.6410   XZ=              0.9233   YZ=              0.7085
 Traceless Quadrupole moment (field-independent basis, Debye-Ang):
   XX=            -14.1449   YY=              9.6154   ZZ=              4.5296
   XY=             -5.6410   XZ=              0.9233   YZ=              0.7085
 Octapole moment (field-independent basis, Debye-Ang**2):
  XXX=            292.6390  YYY=             20.0058  ZZZ=             13.5691  XYY=             30.7091
  XXY=             48.3965  XXZ=              0.1271  XZZ=             18.8115  YZZ=            -11.1307
  YYZ=             16.0744  XYZ=             -7.8346
 Hexadecapole moment (field-independent basis, Debye-Ang**3):
 XXXX=          -7508.4271 YYYY=          -1838.6399 ZZZZ=           -463.9944 XXXY=           -301.9520
 XXXZ=            109.8180 YYYX=            -39.0361 YYYZ=             -8.5683 ZZZX=             28.9903
 ZZZY=              0.9094 XXYY=          -1423.6205 XXZZ=          -1117.9439 YYZZ=           -390.2697
 XXYZ=            -17.2369 YYXZ=            -12.4085 ZZXY=              1.2345
 N-N= 2.025917510383D+03 E-N=-7.701771115121D+03  KE= 1.542592395916D+03
   1 Symmetry operations used in ECPInt.
 ECPInt:  NShTT=   12561 NPrTT=   47899 LenC2=   11129 LenP2D=   29121.
 LDataN:  DoStor=T MaxTD1= 5 Len=  102
 Calling FoFJK, ICntrl=      2127 FMM=F ISym2X=0 I1Cent= 0 IOpClX= 0 NMat=1 NMatS=1 NMatT=0.
 ***** Axes restored to original set *****
 -------------------------------------------------------------------
 Center     Atomic                   Forces (Hartrees/Bohr)
 Number     Number              X              Y              Z
 -------------------------------------------------------------------
      1        6           0.015298779    0.001400538    0.009083236
      2        6           0.018131278   -0.000330766   -0.009278752
      3        6          -0.001113704    0.000030153   -0.012954269
      4        6          -0.025311736   -0.000133682   -0.008980059
      5        6           0.031709874    0.001367334   -0.013369359
      6        6          -0.027111199    0.006519044    0.033228160
      7        1          -0.013617391   -0.000193507   -0.005699855
      8        1          -0.002570026   -0.000080163    0.014710227
      9        1           0.009726791   -0.000685286    0.009364499
     10        1          -0.021342722    0.011396984    0.017898932
     11        7          -0.013931620   -0.000262601    0.007527189
     12        8          -0.008121649    0.000128694   -0.036832746
     13        8           0.027879056    0.000092877    0.026853651
     14        6          -0.025176655    0.001171696    0.007759920
     15        6           0.028306427    0.009937602    0.016826326
     16        6          -0.036664115    0.007103887    0.008411546
     17        1           0.009871618    0.010308781    0.003836543
     18        1           0.015651017    0.001980178    0.000160867
     19        1          -0.001261069    0.009296842   -0.019249067
     20        6          -0.038650211    0.004498812   -0.018544274
     21        1           0.000913725    0.008515091    0.015786425
     22        1           0.007083344   -0.019561597    0.004634476
     23        1           0.013404633    0.007369328   -0.002611590
     24       16          -0.121123102   -0.013609771    0.053456231
     25        8           0.047955311    0.018041185   -0.008446267
     26        8           0.042219565    0.005619165   -0.030247306
     27        6           0.040560151   -0.024845509   -0.039043468
     28        9          -0.001355990   -0.015726922    0.028508607
     29        9           0.009204089    0.039956837    0.009285477
     30        9          -0.035289811   -0.030067302   -0.021830843
     31        8           0.054725340   -0.039237922   -0.040244457
 -------------------------------------------------------------------
 Cartesian Forces:  Max     0.121123102 RMS     0.024335016

 GradGradGradGradGradGradGradGradGradGradGradGradGradGradGradGradGradGrad
 Berny optimization.
 FormGI is forming the generalized inverse of G from B-inverse, IUseBI=4.
 Internal  Forces:  Max     0.170780103 RMS     0.031249028
 Search for a local minimum.
 Step number   1 out of a maximum of  155
 All quantities printed in internal units (Hartrees-Bohrs-Radians)
 Mixed Optimization -- RFO/linear search
 Second derivative matrix not updated -- first step.
 ITU=  0
     Eigenvalues ---    0.00237   0.00237   0.00237   0.00635   0.00766
     Eigenvalues ---    0.00766   0.00935   0.01228   0.01295   0.01498
     Eigenvalues ---    0.01680   0.01693   0.02070   0.02070   0.02070
     Eigenvalues ---    0.02070   0.02070   0.02070   0.02070   0.02681
     Eigenvalues ---    0.07243   0.07243   0.07243   0.07243   0.08130
     Eigenvalues ---    0.08789   0.09110   0.09110   0.16000   0.16000
     Eigenvalues ---    0.16000   0.16000   0.16000   0.16000   0.16000
     Eigenvalues ---    0.16000   0.16000   0.16000   0.17310   0.21379
     Eigenvalues ---    0.22000   0.22981   0.24000   0.25000   0.25000
     Eigenvalues ---    0.25000   0.25000   0.25000   0.25000   0.25000
     Eigenvalues ---    0.25000   0.25000   0.25000   0.25000   0.25000
     Eigenvalues ---    0.25000   0.27758   0.28519   0.28519   0.28519
     Eigenvalues ---    0.35740   0.37230   0.37230   0.37230   0.37230
     Eigenvalues ---    0.37230   0.37230   0.37230   0.37230   0.37230
     Eigenvalues ---    0.37230   0.39757   0.40989   0.41268   0.41640
     Eigenvalues ---    0.45389   0.45389   0.45389   0.45389   0.53930
     Eigenvalues ---    0.55021   0.55021   0.55021   0.87694   0.87694
     Eigenvalues ---    1.06448   1.06448
 RFO step:  Lambda=-2.71955992D-01 EMin= 2.36824211D-03
 Linear search not attempted -- first point.
 Maximum step size (   0.300) exceeded in Quadratic search.
    -- Step size scaled by   0.439
 Iteration  1 RMS(Cart)=  0.24197813 RMS(Int)=  0.01058913
 Iteration  2 RMS(Cart)=  0.05425097 RMS(Int)=  0.00043185
 Iteration  3 RMS(Cart)=  0.00107645 RMS(Int)=  0.00019124
 Iteration  4 RMS(Cart)=  0.00000057 RMS(Int)=  0.00019124
 Variable       Old X    -DE/DX   Delta X   Delta X   Delta X     New X
                                 (Linear)    (Quad)   (Total)
    R1        2.64826  -0.01906   0.00000  -0.01194  -0.01198   2.63629
    R2        2.64826  -0.00961   0.00000  -0.00566  -0.00567   2.64260
    R3        2.02201   0.01464   0.00000   0.00997   0.00997   2.03197
    R4        2.64826  -0.02411   0.00000  -0.01514  -0.01516   2.63310
    R5        2.77790  -0.00627   0.00000  -0.00437  -0.00437   2.77353
    R6        2.64826  -0.01270   0.00000  -0.00782  -0.00782   2.64045
    R7        2.02201   0.01471   0.00000   0.01001   0.01001   2.03202
    R8        2.64826   0.00948   0.00000   0.00615   0.00618   2.65445
    R9        2.02201   0.01311   0.00000   0.00892   0.00892   2.03093
   R10        2.64826   0.02247   0.00000   0.01414   0.01417   2.66243
   R11        2.91018   0.02476   0.00000   0.01949   0.01949   2.92967
   R12        2.02201  -0.01790   0.00000  -0.01219  -0.01219   2.00982
   R13        2.26162   0.02545   0.00000   0.00835   0.00835   2.26998
   R14        2.26162   0.02686   0.00000   0.00881   0.00881   2.27044
   R15        2.56096   0.03858   0.00000   0.02086   0.02086   2.58181
   R16        2.91018  -0.01531   0.00000  -0.01205  -0.01205   2.89813
   R17        2.91018  -0.00732   0.00000  -0.00576  -0.00576   2.90441
   R18        2.70231  -0.00768   0.00000  -0.00494  -0.00494   2.69737
   R19        2.02201   0.01381   0.00000   0.00940   0.00940   2.03141
   R20        2.02201   0.00262   0.00000   0.00179   0.00179   2.02379
   R21        2.02201   0.02136   0.00000   0.01454   0.01454   2.03655
   R22        2.02201   0.01770   0.00000   0.01205   0.01205   2.03406
   R23        2.02201   0.02126   0.00000   0.01447   0.01447   2.03648
   R24        2.02201   0.01423   0.00000   0.00969   0.00969   2.03169
   R25        2.77714  -0.03731   0.00000  -0.01424  -0.01424   2.76290
   R26        2.77714  -0.03412   0.00000  -0.01303  -0.01303   2.76411
   R27        3.36371   0.03608   0.00000   0.02880   0.02880   3.39251
   R28        3.15584   0.02600   0.00000   0.01703   0.01703   3.17287
   R29        2.55113  -0.03249   0.00000  -0.01733  -0.01733   2.53380
   R30        2.55113  -0.04187   0.00000  -0.02234  -0.02234   2.52879
   R31        2.55113  -0.04148   0.00000  -0.02213  -0.02213   2.52900
    A1        2.09440   0.00299   0.00000   0.00199   0.00195   2.09634
    A2        2.09440  -0.00339   0.00000  -0.00292  -0.00290   2.09150
    A3        2.09440   0.00040   0.00000   0.00093   0.00095   2.09534
    A4        2.09440   0.00567   0.00000   0.00311   0.00305   2.09744
    A5        2.09440  -0.00167   0.00000  -0.00058  -0.00055   2.09385
    A6        2.09440  -0.00399   0.00000  -0.00253  -0.00250   2.09189
    A7        2.09440  -0.00490   0.00000  -0.00570  -0.00573   2.08867
    A8        2.09440  -0.00015   0.00000   0.00022   0.00023   2.09462
    A9        2.09440   0.00505   0.00000   0.00549   0.00550   2.09989
   A10        2.09440   0.02268   0.00000   0.02037   0.02041   2.11481
   A11        2.09440  -0.01462   0.00000  -0.01351  -0.01354   2.08086
   A12        2.09440  -0.00806   0.00000  -0.00685  -0.00688   2.08752
   A13        2.09440  -0.03595   0.00000  -0.02906  -0.02900   2.06540
   A14        2.09440  -0.07818   0.00000  -0.06627  -0.06631   2.02808
   A15        2.09440   0.11413   0.00000   0.09533   0.09528   2.18967
   A16        2.09440   0.00951   0.00000   0.00929   0.00930   2.10370
   A17        2.09440  -0.02633   0.00000  -0.02655  -0.02657   2.06782
   A18        2.09440   0.01682   0.00000   0.01727   0.01725   2.11164
   A19        2.09440  -0.02095   0.00000  -0.01760  -0.01760   2.07679
   A20        2.09440  -0.02105   0.00000  -0.01769  -0.01769   2.07670
   A21        2.09440   0.04200   0.00000   0.03529   0.03529   2.12969
   A22        2.09440   0.16150   0.00000   0.13570   0.13570   2.23009
   A23        2.09440  -0.09528   0.00000  -0.08006  -0.08007   2.01433
   A24        2.09440  -0.06621   0.00000  -0.05564  -0.05564   2.03875
   A25        2.09440  -0.01987   0.00000  -0.01669  -0.01676   2.07763
   A26        2.09440   0.07265   0.00000   0.06105   0.06097   2.15536
   A27        2.09440  -0.05278   0.00000  -0.04435  -0.04441   2.04998
   A28        1.91063  -0.00187   0.00000  -0.00239  -0.00240   1.90823
   A29        1.91063   0.02029   0.00000   0.02114   0.02111   1.93174
   A30        1.91063  -0.00122   0.00000  -0.00129  -0.00132   1.90931
   A31        1.91063  -0.00870   0.00000  -0.00873  -0.00874   1.90189
   A32        1.91063  -0.00373   0.00000  -0.00488  -0.00489   1.90574
   A33        1.91063  -0.00477   0.00000  -0.00386  -0.00391   1.90673
   A34        1.91063   0.00220   0.00000   0.00210   0.00210   1.91273
   A35        1.91063   0.00037   0.00000   0.00040   0.00040   1.91103
   A36        1.91063   0.00784   0.00000   0.00806   0.00805   1.91869
   A37        1.91063  -0.00226   0.00000  -0.00250  -0.00250   1.90814
   A38        1.91063  -0.00529   0.00000  -0.00542  -0.00543   1.90520
   A39        1.91063  -0.00286   0.00000  -0.00265  -0.00266   1.90797
   A40        1.91063   0.04595   0.00000   0.04292   0.04234   1.95298
   A41        1.91063  -0.03811   0.00000  -0.03638  -0.03618   1.87446
   A42        1.91063  -0.03808   0.00000  -0.03664  -0.03590   1.87473
   A43        1.91063  -0.04567   0.00000  -0.03769  -0.03811   1.87253
   A44        1.91063   0.00261   0.00000   0.00836   0.00883   1.91947
   A45        1.91063   0.07329   0.00000   0.05943   0.05990   1.97053
   A46        1.91063   0.00433   0.00000   0.00508   0.00494   1.91557
   A47        1.91063  -0.01679   0.00000  -0.01616  -0.01609   1.89454
   A48        1.91063   0.03088   0.00000   0.02655   0.02648   1.93711
   A49        1.91063   0.00210   0.00000   0.00055   0.00055   1.91118
   A50        1.91063  -0.00367   0.00000   0.00102   0.00074   1.91138
   A51        1.91063  -0.01685   0.00000  -0.01705  -0.01691   1.89372
   A52        1.91063   0.17078   0.00000   0.14350   0.14350   2.05414
    D1        0.00000   0.00145   0.00000   0.00219   0.00215   0.00215
    D2        3.14159   0.00028   0.00000   0.00040   0.00035  -3.14124
    D3        3.14159   0.00239   0.00000   0.00362   0.00364  -3.13795
    D4        0.00000   0.00122   0.00000   0.00183   0.00185   0.00185
    D5        0.00000   0.00047   0.00000   0.00074   0.00085   0.00085
    D6        3.14159   0.00538   0.00000   0.00808   0.00817  -3.13343
    D7        3.14159  -0.00047   0.00000  -0.00069  -0.00065   3.14094
    D8       -0.00000   0.00443   0.00000   0.00665   0.00666   0.00666
    D9       -0.00000  -0.00072   0.00000  -0.00110  -0.00115  -0.00115
   D10        3.14159  -0.00118   0.00000  -0.00181  -0.00179   3.13980
   D11        3.14159   0.00045   0.00000   0.00069   0.00064  -3.14095
   D12        0.00000  -0.00002   0.00000  -0.00002   0.00000   0.00000
   D13        0.00000   0.00046   0.00000   0.00070   0.00070   0.00070
   D14        3.14159   0.00067   0.00000   0.00103   0.00103  -3.14056
   D15        3.14159  -0.00071   0.00000  -0.00109  -0.00109   3.14051
   D16       -0.00000  -0.00049   0.00000  -0.00075  -0.00075  -0.00075
   D17        0.00000  -0.00193   0.00000  -0.00292  -0.00287  -0.00287
   D18        3.14159  -0.00034   0.00000  -0.00052  -0.00040   3.14119
   D19        3.14159  -0.00147   0.00000  -0.00221  -0.00223   3.13936
   D20       -0.00000   0.00013   0.00000   0.00018   0.00024   0.00024
   D21        0.00000   0.00385   0.00000   0.00585   0.00574   0.00574
   D22        3.14159  -0.00206   0.00000  -0.00318  -0.00275   3.13884
   D23        3.14159   0.00226   0.00000   0.00345   0.00327  -3.13832
   D24       -0.00000  -0.00366   0.00000  -0.00558  -0.00523  -0.00523
   D25       -0.00000  -0.00312   0.00000  -0.00476  -0.00471  -0.00471
   D26        3.14159  -0.00803   0.00000  -0.01210  -0.01222   3.12938
   D27        3.14159   0.00279   0.00000   0.00428   0.00465  -3.13695
   D28        0.00000  -0.00211   0.00000  -0.00307  -0.00286  -0.00286
   D29        3.14159  -0.01196   0.00000  -0.01940  -0.01921   3.12238
   D30        0.00000  -0.01553   0.00000  -0.02497  -0.02502  -0.02502
   D31       -0.00000  -0.01787   0.00000  -0.02844  -0.02839  -0.02839
   D32        3.14159  -0.02145   0.00000  -0.03401  -0.03420   3.10739
   D33        3.14159  -0.03273   0.00000  -0.04874  -0.04926   3.09234
   D34       -0.00000  -0.01851   0.00000  -0.02679  -0.02659  -0.02659
   D35       -0.00000  -0.02915   0.00000  -0.04317  -0.04337  -0.04337
   D36        3.14159  -0.01493   0.00000  -0.02122  -0.02071   3.12089
   D37       -0.52360   0.00229   0.00000   0.00349   0.00328  -0.52031
   D38        1.57080   0.00109   0.00000   0.00197   0.00175   1.57255
   D39       -2.61799   0.00261   0.00000   0.00391   0.00369  -2.61430
   D40        2.61799  -0.00129   0.00000  -0.00208  -0.00187   2.61613
   D41       -1.57080  -0.00248   0.00000  -0.00360  -0.00340  -1.57419
   D42        0.52360  -0.00096   0.00000  -0.00167  -0.00146   0.52214
   D43       -0.52360   0.00050   0.00000   0.00118   0.00085  -0.52274
   D44        1.57080   0.00113   0.00000   0.00197   0.00163   1.57243
   D45       -2.61799   0.00696   0.00000   0.00940   0.00910  -2.60890
   D46        2.61799  -0.01372   0.00000  -0.02077  -0.02045   2.59755
   D47       -1.57080  -0.01310   0.00000  -0.01998  -0.01967  -1.59046
   D48        0.52360  -0.00726   0.00000  -0.01254  -0.01221   0.51139
   D49       -1.57080  -0.00279   0.00000  -0.00431  -0.00451  -1.57530
   D50        1.57080   0.01144   0.00000   0.01763   0.01782   1.58862
   D51        1.04720  -0.01031   0.00000  -0.01040  -0.01081   1.03638
   D52       -1.04720  -0.00525   0.00000  -0.00429  -0.00467  -1.05187
   D53        3.14159   0.00676   0.00000   0.01023   0.00999  -3.13160
   D54        3.14159  -0.00534   0.00000  -0.00319  -0.00290   3.13870
   D55        1.04720  -0.00028   0.00000   0.00291   0.00325   1.05045
   D56       -1.04720   0.01173   0.00000   0.01743   0.01791  -1.02929
   D57       -1.04720   0.01478   0.00000   0.02036   0.02026  -1.02693
   D58        3.14159   0.01984   0.00000   0.02647   0.02641  -3.11518
   D59        1.04720   0.03185   0.00000   0.04099   0.04107   1.08827
   D60        3.14159   0.00889   0.00000   0.00526   0.00535  -3.13624
   D61        1.04720  -0.02566   0.00000  -0.02999  -0.02953   1.01766
   D62       -1.04720  -0.01621   0.00000  -0.02534  -0.02589  -1.07309
         Item               Value     Threshold  Converged?
 Maximum Force            0.170780     0.000450     NO 
 RMS     Force            0.031249     0.000300     NO 
 Maximum Displacement     1.199454     0.001800     NO 
 RMS     Displacement     0.290483     0.001200     NO 
 Predicted change in Energy=-1.073962D-01
 GradGradGradGradGradGradGradGradGradGradGradGradGradGradGradGradGradGrad

                          Input orientation:                          
 ---------------------------------------------------------------------
 Center     Atomic      Atomic             Coordinates (Angstroms)
 Number     Number       Type             X           Y           Z
 ---------------------------------------------------------------------
      1          6           0       -0.142778    0.038547    0.227381
      2          6           0       -0.005014    0.067350    1.615326
      3          6           0        1.262828    0.078406    2.193210
      4          6           0        2.395803    0.059103    1.375687
      5          6           0        2.281896    0.025176   -0.023949
      6          6           0        0.991710    0.018049   -0.589958
      7          1           0       -1.123806    0.033537   -0.212819
      8          1           0        1.365997    0.102280    3.263282
      9          1           0        3.370188    0.068179    1.829029
     10          1           0        0.856583    0.003883   -1.644796
     11          7           0       -1.197854    0.088359    2.470194
     12          8           0       -2.283200    0.079587    1.955534
     13          8           0       -1.058729    0.114153    3.663296
     14          6           0        3.612826    0.010332   -0.818855
     15          6           0        3.777670   -0.042394   -2.174085
     16          6           0        5.199005    0.018798   -2.755698
     17          1           0        5.826761    0.596104   -2.101318
     18          1           0        5.610153   -0.965189   -2.853930
     19          1           0        5.169254    0.489744   -3.724588
     20          6           0        4.887862    0.069434    0.031315
     21          1           0        4.691130    0.612338    0.939685
[...]
 023755,0.00005629,-0.00027932,-0.00017931,-0.00023217,0.00008310,-0.00
 028833,-0.00020627,0.00061909,0.00014945,0.00008383,0.00001510,0.00027
 600,0.00009740,0.00015870,-0.00014429,-0.00003993,-0.00004781,0.122100
 86,-0.01627302,-0.11905508,-0.13186679,0.00639005,0.08710334,0.0002283
 2,-0.00017956,0.00024270,0.00029403,0.00024640,-0.00030756,0.00025540,
 -0.00013245,0.00002396,-0.00108274,0.00144144,0.00022673,-0.00119443,0
 .00062702,0.00070382,0.00030218,-0.00026261,0.00011658,0.00004274,-0.0
 0010577,-0.00008745,-0.00004763,-0.00002864,-0.00009381,0.00001842,0.0
 0002440,0.00059660,-0.00009504,-0.00011546,-0.00006429,-0.00003550,0.0
 0003304,-0.00032896,0.00015156,-0.00005041,0.00016671,0.00001993,-0.00
 004000,0.00016026,0.00042256,-0.00099714,0.00211623,-0.00255573,-0.002
 18936,-0.00223219,0.00078869,0.00091274,0.00064374,0.00029932,-0.00016
 637,-0.00012968,0.00074785,0.00028776,-0.00124623,-0.00011850,-0.00044
 805,0.00003695,0.00032296,-0.00029143,0.00012724,-0.00009502,-0.000116
 38,-0.00007409,-0.00001232,0.00025347,0.00017794,0.00013028,0.00013642
 ,-0.00000216,-0.33758514,0.16935407,-0.23175531,-0.01254600,0.01975389
 ,-0.02479552,0.33749817,0.00015676,0.00016266,-0.00026641,0.00082862,-
 0.00031635,0.00016880,-0.00082921,0.00015425,-0.00027122,0.00171397,-0
 .00137758,-0.00122001,-0.00106282,-0.00066916,0.00021257,-0.00026389,0
 .00031083,-0.00029387,-0.00000597,0.00002506,-0.00002155,0.00010582,-0
 .00009062,-0.00008878,-0.00010111,-0.00022033,-0.00007143,-0.00015130,
 0.00025760,0.00003089,-0.00108620,-0.00050632,0.00074118,0.00044349,0.
 00010832,-0.00021671,0.00044311,0.00043842,-0.00046288,-0.00105627,-0.
 00146270,0.00080957,0.01017279,0.00358178,0.00539369,-0.00041053,-0.00
 058548,-0.00097009,-0.00046349,0.00003852,0.00015445,-0.00021100,-0.00
 014319,0.00019615,0.00020228,0.00012629,-0.00013224,0.00057215,-0.0003
 0250,-0.00039856,-0.00033267,-0.00016673,-0.00022692,-0.00025173,-0.00
 006398,-0.00023849,-0.00007319,-0.00003118,0.00006896,0.17289187,-0.19
 674045,0.15264154,-0.00364834,0.01278560,0.00834706,-0.19000477,0.1997
 1346,0.00089487,0.00003600,-0.00037508,0.00029373,-0.00040768,0.000519
 34,-0.00112179,-0.00058606,0.00021545,-0.00032956,-0.00071325,-0.00191
 056,0.00103835,-0.00047470,-0.00110926,-0.00089295,0.00050104,0.000082
 09,-0.00005256,-0.00002543,-0.00005548,-0.00020049,0.00000086,0.000140
 13,0.00073264,0.00027013,0.00120733,0.00011162,-0.00026081,0.00002940,
 -0.00095200,0.00009809,0.00017873,0.00069332,-0.00018119,0.00002229,0.
 00036593,-0.00008038,-0.00005446,0.00189622,0.00001105,0.00118750,-0.0
 0592829,-0.00533480,-0.00450986,0.00090761,0.00056631,0.00070188,0.000
 21641,0.00016832,-0.00008370,-0.00038469,0.00028372,-0.00059410,-0.000
 37913,-0.00026151,0.00014870,-0.00022691,-0.00000376,0.00073835,0.0001
 7760,0.00008175,0.00006155,0.00034536,0.00027193,0.00031386,-0.0000991
 4,0.00000298,-0.00006698,-0.23371802,0.15420733,-0.30785041,0.00960233
 ,0.00208195,0.01947070,0.25276108,-0.18322087,0.29880850,0.00008763,-0
 .00003468,-0.00014085,-0.00008687,-0.00004828,0.00010297,-0.00002511,-
 0.00004669,-0.00001173,-0.00031885,0.00006866,-0.00006192,0.00044985,-
 0.00026303,0.00006402,-0.00033710,-0.00011568,0.00018261,-0.00001086,0
 .00005101,0.00008716,-0.00000062,0.00001740,0.00003385,0.00011260,0.00
 008159,0.00010219,0.00011837,0.00010782,0.00007734,0.00056669,0.000000
 01,0.00000785,-0.00031768,0.00002984,-0.00009526,-0.00018171,-0.000044
 57,-0.00001370,-0.00187422,-0.00002024,-0.00010151,0.00652588,-0.00099
 164,-0.00235671,0.00114174,-0.00124008,0.00016473,-0.00048978,0.000811
 37,0.00046886,-0.00225513,0.00002314,-0.00135335,-0.00018238,-0.001016
 20,0.00009179,0.00010582,0.00027054,-0.00018912,-0.00001149,0.00003972
 ,0.00005374,-0.00002486,-0.00007452,-0.00001974,-0.00020847,-0.0001180
 2,-0.00006061,-0.02143262,0.01088832,0.01668603,-0.01849578,0.00786376
 ,0.01927265,-0.00852704,0.00124172,-0.02124661,0.61963109,0.00007868,-
 0.00003973,-0.00000613,-0.00030595,0.00004367,0.00004213,0.00026684,0.
 00002563,-0.00003762,-0.00022385,-0.00002091,0.00025116,0.00018743,-0.
 00023958,-0.00012136,0.00004687,-0.00001868,0.00014084,0.00007434,-0.0
 0004583,-0.00007150,0.00001704,0.00006714,-0.00001280,-0.00005120,0.00
 001438,-0.00028312,-0.00000272,-0.00020725,-0.00007611,0.00123760,0.00
 053806,-0.00087151,-0.00052632,-0.00011763,0.00027896,-0.00055794,-0.0
 0046623,0.00052343,-0.00026772,-0.00042738,0.00028785,-0.00051147,-0.0
 0572023,-0.00328752,0.00061618,0.00061120,0.00019481,0.00021052,0.0000
 9058,0.00013161,-0.00062963,0.00003436,0.00006561,-0.00038985,-0.00044
 734,0.00014378,-0.00028551,0.00058731,-0.00015305,0.00017077,0.0001145
 7,0.00013537,-0.00005173,-0.00009195,0.00002369,0.00000573,-0.00001439
 ,-0.00005341,0.00722062,-0.05108287,-0.05981292,-0.00928152,0.00618373
 ,0.00656224,0.01233536,-0.00110909,0.02749713,0.00264845,0.61589533,0.
 00025334,0.00011445,-0.00020558,-0.00035690,-0.00009807,0.00019403,0.0
 0019404,0.00011798,-0.00013888,-0.00027320,0.00009385,-0.00002696,0.00
 057534,0.00029362,-0.00043628,-0.00043051,-0.00035437,0.00046271,0.000
 03197,-0.00006860,0.00006764,0.00002467,-0.00000211,-0.00012192,-0.000
 08542,-0.00004559,-0.00032699,0.00015659,-0.00015508,0.00000659,0.0020
 8598,-0.00006355,-0.00072494,-0.00110016,0.00020365,0.00012501,-0.0007
 5874,-0.00009966,0.00040766,0.00266703,0.00087450,-0.00016314,-0.01096
 931,0.00053433,-0.00254793,0.00039339,0.00050216,0.00095340,0.00059899
 ,-0.00009922,-0.00043316,0.00018898,-0.00018043,0.00079179,0.00003329,
 0.00058295,-0.00002803,-0.00049100,-0.00060057,0.00093959,0.00018621,0
 .00018156,0.00011298,0.00040239,0.00015612,0.00023113,0.00018249,0.000
 01389,-0.00004741,0.00921606,-0.07452798,-0.16282591,-0.01857805,0.006
 58394,0.01392325,0.00695174,-0.00147657,0.00780997,0.01303058,-0.02820
 884,0.56985285,-0.00001787,-0.00002144,0.00008005,0.00009787,0.0000434
 4,-0.00006047,-0.00003895,-0.00004633,0.00001432,0.00005765,0.00001822
 ,-0.00001092,-0.00017333,0.00002433,0.00001736,0.00011431,0.00007589,-
 0.00011065,0.00000554,-0.00001418,-0.00004813,-0.00001184,0.00000212,0
 .00001179,0.00002367,0.00000344,0.00010204,-0.00006007,-0.00002828,-0.
 00002329,-0.00041949,0.00006666,0.00001178,0.00025614,-0.00006316,0.00
 004702,0.00013632,-0.00002188,-0.00000422,0.00010206,0.00005909,0.0001
 3341,-0.00008380,0.00017516,0.00057465,-0.00029415,0.00019511,-0.00016
 236,0.00005228,-0.00014883,-0.00006558,0.00045040,0.00003460,0.0002072
 0,0.00002293,0.00012108,0.00000156,0.00005059,-0.00000846,-0.00006408,
 -0.00002335,-0.00003781,-0.00002622,-0.00004176,0.00000770,-0.00000365
 ,0.00002452,0.00003044,0.00001309,-0.00870080,0.01172992,-0.00503228,0
 .00628092,-0.00246114,-0.00020030,0.00075406,-0.00170888,-0.00375424,-
 0.16311592,0.06727662,-0.11016282,0.22018076,-0.00000892,0.00001675,-0
 .00003977,0.00001127,-0.00002674,0.00002021,-0.00002385,0.00003154,-0.
 00001729,0.00003404,0.00000192,-0.00003778,0.00001618,0.00003390,0.000
 02306,-0.00005264,-0.00005548,0.00005677,-0.00001815,0.00000892,0.0000
 3728,0.00000375,-0.00001377,-0.00000815,-0.00001055,-0.00001122,-0.000
 02065,0.00002802,0.00006048,0.00003039,-0.00000451,-0.00013749,0.00013
 514,-0.00003615,0.00005928,-0.00006671,0.00003013,0.00010034,-0.000087
 20,-0.00005772,-0.00000860,-0.00015161,0.00042099,0.00113416,0.0000318
 9,0.00007152,-0.00020427,0.00007037,-0.00004266,0.00006304,-0.00002055
 ,-0.00009629,-0.00001593,-0.00005123,0.00010488,0.00006562,-0.00002305
 ,0.00004338,-0.00011778,0.00005760,-0.00002504,-0.00000560,-0.00001398
 ,0.00002664,0.00001029,-0.00000626,-0.00000450,-0.00001083,0.00000505,
 0.00320563,-0.00094403,0.00043709,-0.00190339,0.00083882,-0.00089309,-
 0.00097833,0.00123754,-0.00056128,0.06486978,-0.13083831,0.08256578,-0
 .11309033,0.17804877,-0.00004031,-0.00005304,0.00010237,0.00019388,0.0
 0004814,-0.00006660,-0.00014888,-0.00012411,0.00007045,0.00002413,0.00
 001564,-0.00011532,-0.00016713,0.00001100,0.00008001,0.00010549,0.0001
 5020,-0.00022146,-0.00001091,0.00001735,-0.00004772,-0.00003106,0.0000
 0550,0.00005529,0.00010371,0.00004562,0.00030067,-0.00006710,0.0000232
 4,-0.00001036,-0.00093517,0.00006842,0.00023412,0.00053226,-0.00011700
 ,-0.00001051,0.00033420,0.00000700,-0.00012753,-0.00046912,0.00014447,
 0.00020327,0.00266578,0.00072182,0.00101297,-0.00026533,0.00000344,-0.
 00031617,-0.00012169,-0.00005244,0.00008475,0.00016779,0.00008137,-0.0
 0018887,-0.00004806,-0.00016491,0.00001440,0.00017601,0.00003872,-0.00
 018129,-0.00006729,-0.00007774,-0.00005390,-0.00009110,-0.00000086,-0.
 00001333,-0.00005317,0.00001909,0.00000861,-0.02802771,0.03298404,-0.0
 1797800,0.00707343,-0.00459234,0.00041731,-0.00358782,-0.00314344,-0.0
 1518010,-0.11238361,0.08757701,-0.23046641,0.15425974,-0.13492083,0.24
 218402,-0.00002050,-0.00001155,0.00003738,0.00007449,0.00001214,-0.000
 03212,-0.00002454,0.00001370,-0.00000943,0.00010096,0.00000217,-0.0000
 1048,-0.00015910,0.00003562,0.00006271,0.00009103,-0.00000458,-0.00006
 630,-0.00000484,-0.00000824,-0.00001044,-0.00000157,-0.00001121,-0.000
 00898,-0.00001775,-0.00001809,0.00001185,-0.00002761,0.00001169,-0.000
 00597,-0.00024994,-0.00006952,0.00008800,0.00012290,0.00001047,-0.0000
 0970,0.00009961,0.00006778,-0.00005533,0.00002284,-0.00008789,0.000004
 68,-0.00002305,0.00006899,0.00043324,-0.00022208,0.00012422,-0.0001140
 3,0.00005317,-0.00012725,-0.00007482,0.00035368,-0.00004176,0.00025268
 ,0.00005155,0.00018450,-0.00001609,0.00003183,0.00001233,-0.00007722,-
 0.00001932,-0.00002660,-0.00001712,-0.00004009,-0.00000748,-0.00002572
 ,0.00002978,0.00001845,0.00001872,0.00109501,-0.00489163,0.00222261,0.
 00381927,-0.00004982,-0.00224734,0.00072016,0.00064631,0.00062150,-0.0
 9635379,-0.06785129,-0.00235860,0.01476870,0.02574970,-0.00426627,0.11
 417118,-0.00009614,-0.00006048,0.00009410,0.00030426,0.00004278,-0.000
 10944,-0.00014117,0.00003047,-0.00002342,0.00036967,0.00003004,-0.0000
 0419,-0.00052419,-0.00008105,0.00034177,0.00025239,0.00001669,-0.00022
 044,-0.00002664,0.00001880,0.00000844,0.00001184,-0.00004620,-0.000001
 25,-0.00002220,-0.00005060,0.00011537,-0.00007242,0.00014104,0.0000213
 3,-0.00096900,-0.00032222,0.00055512,0.00043546,0.00005374,-0.00015614
 ,0.00041123,0.00030032,-0.00034386,-0.00124407,-0.00044894,0.00009426,
 0.00515503,0.00033531,0.00132061,-0.00052759,-0.00034133,-0.00038619,-
 0.00014617,-0.00012080,-0.00003532,0.00040459,-0.00006876,0.00018070,0
 .00017771,0.00023429,-0.00003479,0.00027659,0.00027463,-0.00056808,-0.
 00012412,-0.00011800,-0.00006078,-0.00024225,-0.00010653,-0.00016818,-
 0.00001247,0.00000191,0.00006237,-0.01142706,-0.03111895,0.01498849,0.
 00749126,0.00269698,-0.00547862,-0.00304714,0.00585468,-0.00757429,-0.
 06901633,-0.34229836,-0.01434687,0.01227137,-0.05996388,0.03102012,0.1
 0703802,0.45167445,-0.00006749,-0.00004751,0.00006857,0.00011727,0.000
 04267,-0.00006872,-0.00004709,-0.00001794,0.00000556,0.00012058,-0.000
 00534,0.00003557,-0.00023467,-0.00011682,0.00018740,0.00015079,0.00007
 707,-0.00011654,-0.00000614,0.00001432,-0.00001666,-0.00000051,-0.0000
 0189,0.00002611,0.00001179,0.00000105,0.00006978,-0.00004877,0.0000513
 1,-0.00000011,-0.00053248,-0.00000756,0.00019205,0.00027765,-0.0000417
 5,-0.00003630,0.00019854,0.00004276,-0.00011509,-0.00096413,-0.0004109
 5,0.00016679,0.00374868,-0.00054915,0.00025161,-0.00003596,-0.00017548
 ,-0.00022824,-0.00014569,0.00003009,0.00009012,-0.00005472,0.00005292,
 -0.00012912,0.00001607,-0.00009705,0.00000574,0.00014731,0.00027276,-0
 .00036866,-0.00005585,-0.00005584,-0.00002128,-0.00015388,-0.00007388,
 -0.00008984,-0.00004385,-0.00000780,0.00001896,-0.00615408,-0.01912530
 ,0.00937558,0.00286776,0.00064707,-0.00270912,-0.00000587,0.00098407,-
 0.00129046,-0.00485470,-0.02164156,-0.08448558,-0.00151773,0.04974145,
 0.00121797,-0.00272714,-0.02267793,0.07067803,0.00008506,-0.00003677,0
 .00005440,0.00014488,0.00001860,-0.00009476,0.00002214,0.00008997,-0.0
 0008297,0.00013266,0.00003155,-0.00010644,-0.00041244,0.00009956,0.000
 00639,0.00013428,-0.00002254,0.00004489,0.00002639,-0.00005228,-0.0000
 4520,0.00000941,-0.00000921,-0.00005663,-0.00005843,-0.00005866,-0.000
 05184,-0.00006267,-0.00006387,-0.00004206,0.00013863,-0.00002776,-0.00
 021470,-0.00003795,0.00002027,0.00009929,-0.00005871,0.00000643,0.0001
 0465,0.00094734,0.00010350,0.00004755,-0.00387263,0.00022039,-0.000003
 90,-0.00095617,0.00090018,-0.00011091,0.00047552,-0.00065697,-0.000388
 39,0.00088240,-0.00071199,0.00058060,0.00011303,0.00066155,0.00003211,
 -0.00005004,-0.00014202,0.00004554,0.00000808,-0.00002127,-0.00001763,
 -0.00000660,0.00003497,0.00000298,0.00016398,0.00007571,0.00003642,-0.
 03417215,-0.00980887,-0.00150818,-0.00247726,0.00402070,0.00905377,0.0
 0899970,-0.00057635,0.00415040,-0.30623292,-0.00517678,0.08954401,-0.0
 7109271,0.02166749,-0.01267727,-0.03855680,-0.04047569,0.01553303,0.43
 707976,-0.00004042,0.00001247,0.00003128,0.00006576,0.00000991,-0.0000
 4048,-0.00003311,-0.00000627,0.00000010,0.00009682,-0.00000660,0.00000
 886,-0.00010390,0.00000453,0.00002453,0.00004824,0.00002897,-0.0000503
 6,-0.00001056,0.00000976,0.00000526,0.00000266,-0.00001247,0.00000573,
 -0.00000321,-0.00001311,0.00003602,-0.00001748,0.00003804,0.00000700,-
 0.00031596,-0.00008878,0.00018491,0.00014059,0.00001128,-0.00005262,0.
 00013152,0.00008607,-0.00011051,0.00007779,-0.00000853,0.00000995,0.00
 016624,0.00109016,0.00126583,-0.00064110,-0.00005688,-0.00024009,0.000
 07635,-0.00020668,-0.00013633,-0.00024933,-0.00065230,-0.00023509,0.00
 013637,0.00029306,0.00007790,0.00005191,-0.00004795,-0.00002584,-0.000
 03122,-0.00002945,-0.00002958,-0.00001592,0.00000126,-0.00002643,0.000
 01293,0.00000659,0.00002093,0.00915472,0.00288317,-0.00179361,0.002112
 97,-0.00087809,-0.00297154,-0.00179664,0.00072564,-0.00193584,-0.00186
 164,-0.07867948,-0.00065960,0.02797315,0.00817681,-0.00002259,-0.06032
 070,-0.01784900,0.02059530,0.02344527,0.08480979,-0.00010608,0.0000219
 6,0.00002538,0.00000895,-0.00000174,0.00000410,-0.00006482,-0.00007105
 ,0.00007875,0.00005149,-0.00007540,0.00003479,0.00008843,-0.00001693,0
 .00002940,0.00003691,0.00009578,-0.00015813,-0.00002216,0.00003884,0.0
 0000367,-0.00001041,0.00000128,0.00005173,0.00003258,0.00002866,0.0000
 9282,-0.00000851,0.00004984,0.00001198,-0.00060640,0.00000512,0.000300
 86,0.00029666,-0.00005076,-0.00008090,0.00022629,0.00004081,-0.0001581
 3,-0.00049582,-0.00015059,0.00005067,0.00243260,0.00050940,0.00110150,
 -0.00036838,-0.00017537,-0.00031934,-0.00015643,0.00000569,0.00017451,
 -0.00072926,-0.00044002,-0.00073850,-0.00001129,-0.00036939,0.00001153
 ,0.00009221,0.00008236,-0.00010866,-0.00002876,-0.00003010,-0.00002781
 ,-0.00004686,-0.00001977,-0.00002305,-0.00007947,-0.00001622,0.0000025
 5,0.03629649,0.00788908,-0.00134501,0.00662167,-0.00475698,-0.00993984
 ,-0.00429895,-0.00064871,-0.00194576,0.09487849,0.00002102,-0.11906627
 ,-0.03451150,0.00451353,0.01769279,0.00950629,0.01066340,0.01117530,-0
 .10352404,-0.01185138,0.10362451,0.00140514,0.00025598,0.00019816,0.00
 112012,-0.00063233,0.00001986,-0.00130387,0.00050422,-0.00071784,0.003
 52657,0.00135403,-0.00159327,-0.00637605,0.00378867,0.00609632,0.00062
 339,0.00133353,0.00168185,0.00018714,-0.00013530,-0.00025804,0.0001789
 3,-0.00003944,-0.00017388,-0.00026667,-0.00041783,0.00018325,-0.000460
 14,-0.00078076,-0.00021090,-0.00062596,-0.00029192,0.00000335,0.000447
 24,0.00001171,0.00011091,0.00024820,0.00020423,-0.00003255,-0.01355082
 ,-0.01111472,-0.01790853,-0.15434634,-0.03687636,-0.06317751,-0.042736
 35,-0.02368510,-0.02291426,-0.00644395,0.00058146,0.00611031,0.0028009
 4,0.00023507,-0.00164519,0.00230519,0.00010836,-0.00099845,0.00449343,
 -0.00173793,-0.00144701,-0.00160565,-0.00095213,-0.00121726,-0.0011719
 1,-0.00036340,-0.00101658,0.00032065,0.00030508,0.00058464,-0.07634861
 ,-0.03461697,-0.01504970,-0.01518665,-0.03145789,0.01094527,0.01189877
 ,0.01281880,-0.00552262,-0.00825646,-0.00627956,0.01884761,0.00069532,
 0.00006963,-0.00217738,0.00011480,-0.00648480,-0.00553871,0.00868425,0
 .00174787,-0.00549993,0.28962935,-0.00118129,-0.00124356,0.00123534,0.
 00085389,0.00111734,-0.00135338,0.00114381,0.00025269,-0.00047911,0.00
 044552,-0.00028645,0.00087916,-0.00296716,-0.00484343,0.00394423,0.003
 51941,-0.00097308,-0.00227729,0.00005545,-0.00009150,-0.00017628,0.000
 10622,-0.00016426,-0.00022329,-0.00039758,-0.00041918,-0.00032164,-0.0
 0027855,0.00073802,0.00000902,-0.00182192,-0.00054537,0.00071076,0.000
 81005,0.00009354,-0.00012285,0.00073551,0.00061057,-0.00058957,-0.0257
 6460,-0.00964357,-0.02224107,-0.03221744,-0.05966109,-0.01341494,-0.01
 488123,-0.00369327,-0.00897473,-0.00383715,0.00231022,0.00180865,-0.00
 124447,0.00077586,0.00101412,0.00187751,0.00007240,-0.00156770,0.00169
 531,0.00992291,-0.00621886,0.00049592,-0.00036319,0.00018814,-0.002720
 63,-0.00194018,-0.00232396,0.00011810,0.00001099,0.00057656,-0.0365923
 5,-0.17226622,0.02584118,-0.00544197,-0.00374487,0.00596091,-0.0044554
 8,-0.02173500,0.01554324,-0.01412152,-0.01234072,0.02816833,-0.0024575
 9,0.00246578,-0.00971290,-0.00046847,-0.00871102,-0.00749908,0.0064449
 3,0.00034809,-0.00529236,0.13254778,0.28394755,-0.00137465,-0.00107910
 ,0.00106352,0.00031263,0.00121908,-0.00127646,0.00127413,-0.00033530,-
 0.00022396,-0.00027273,-0.00126515,0.00068796,-0.00431362,0.00217434,-
 0.00362246,0.00160859,-0.00068338,-0.00273568,0.00001064,-0.00002660,-
 0.00008438,0.00004800,-0.00005001,-0.00002364,0.00001312,-0.00011517,0
 .00017382,0.00003847,-0.00007837,0.00013792,-0.00156930,-0.00004229,0.
 00044299,0.00075212,-0.00014432,-0.00000972,0.00054714,0.00016598,-0.0
 0028725,-0.03897763,-0.02063830,-0.02665390,-0.06405065,-0.01757895,-0
 .11094989,0.00836533,0.00458058,0.00800645,0.00238268,-0.00010139,-0.0
 0015991,-0.00089389,0.00034423,-0.00001535,-0.00091337,-0.00033348,0.0
 0168851,0.00597751,-0.00586217,-0.00068665,-0.00200165,-0.00082508,-0.
 00179222,-0.00013452,0.00005761,-0.00024639,-0.00027036,0.00013641,0.0
 0027329,-0.00571636,0.03538644,-0.08270434,-0.00344864,0.00397859,0.01
 572799,0.00395759,0.02361980,0.00339048,-0.00241545,-0.00923919,0.0061
 6680,0.00028443,-0.00080615,0.00129857,-0.00112656,-0.00727629,-0.0038
 8943,-0.00041108,-0.00209171,-0.00055543,0.10231807,-0.00309066,0.1968
 5876\\0.00000553,0.00000017,-0.00000448,0.00000137,-0.00000690,0.00000
 425,-0.00000961,0.00000280,-0.00000047,0.00000566,0.00000712,-0.000000
 25,0.00000325,-0.00000581,-0.00000843,-0.00001168,0.00000407,0.0000067
 6,-0.00000323,-0.00000029,-0.00000051,0.00000079,-0.00000306,0.0000006
 1,-0.00000267,-0.00000136,0.00000156,-0.00000373,0.00000094,0.00000315
 ,-0.00001522,-0.00000494,0.00000722,0.00000979,0.00000793,-0.00001248,
 0.00001423,-0.00000708,0.00000018,-0.00000908,-0.00000593,-0.00000680,
 -0.00000199,0.00001022,0.00000773,0.00000117,-0.00000221,-0.00000227,0
 .00000106,0.00000420,-0.00000181,0.00000037,-0.00000133,0.00000009,-0.
 00000071,0.00000260,0.00000107,0.00000537,-0.00000286,0.00000108,-0.00
 000139,0.00000088,-0.00000011,0.00000006,0.00000004,0.00000190,-0.0000
 0107,0.00000147,0.00000209,-0.00000421,0.00001096,-0.00000944,-0.00000
 829,0.00000206,0.00000087,0.00001132,-0.00000969,0.00000275,0.00000761
 ,0.00000976,-0.00000005,0.00000374,-0.00000622,-0.00000136,0.00000600,
 0.00000263,-0.00000304,-0.00001070,-0.00000412,-0.00000043,0.00000626,
 -0.00000607,0.00001062\\\@
 The archive entry for this job was punched.


 ABOVE ALL I AM AN OPTIMIST FOR NUMBER THEORY,
 AND I HOLD THE HOPE THAT WE MAY NOT BE FAR FROM
 A TIME WHEN IRREFUTABLE ARITHMETIC WILL CELEBRATE
 ITS TRIUMPHS IN PHYSICS AND CHEMISTRY.
   -- HERMANN MINKOWSKI, 1905
 Job cpu time:       0 days  2 hours  3 minutes  3.2 seconds.
 Elapsed time:       0 days  0 hours  7 minutes 44.8 seconds.
 File lengths (MBytes):  RWF=    480 Int=      0 D2E=      0 Chk=     12 Scr=      1
 Normal termination of Gaussian 16 at Fri Dec 31 10:55:00 2021.
