 Entering Gaussian System, Link 0=/software/g16/g16
 Input=axMeCyhex.com
 Output=axMeCyhex.log
 Initial command:
 /software/g16/l1.exe "/scratch/Gau-993858.inp" -scrdir="/scratch/"
 Default CPUs for threads: 0-15
 Default is to use a total of  16 processors:
                               16 via shared-memory
                                1 via Linda
 Entering Link 1 = /software/g16/l1.exe PID=    993859.
  
 Copyright (c) 1988-2019, Gaussian, Inc.  All Rights Reserved.
  
 This is part of the Gaussian(R) 16 program.  It is based on
 the Gaussian(R) 09 system (copyright 2009, Gaussian, Inc.),
 the Gaussian(R) 03 system (copyright 2003, Gaussian, Inc.),
 the Gaussian(R) 98 system (copyright 1998, Gaussian, Inc.),
 the Gaussian(R) 94 system (copyright 1995, Gaussian, Inc.),
 the Gaussian 92(TM) system (copyright 1992, Gaussian, Inc.),
 the Gaussian 90(TM) system (copyright 1990, Gaussian, Inc.),
 the Gaussian 88(TM) system (copyright 1988, Gaussian, Inc.),
 the Gaussian 86(TM) system (copyright 1986, Carnegie Mellon
 University), and the Gaussian 82(TM) system (copyright 1983,
 Carnegie Mellon University). Gaussian is a federally registered
 trademark of Gaussian, Inc.
  
 This software contains proprietary and confidential information,
 including trade secrets, belonging to Gaussian, Inc.
  
 This software is provided under written license and may be
 used, copied, transmitted, or stored only in accord with that
 written license.
  
 The following legend is applicable only to US Government
 contracts under FAR:
  
                    RESTRICTED RIGHTS LEGEND
  
 Use, reproduction and disclosure by the US Government is
 subject to restrictions as set forth in subparagraphs (a)
 and (c) of the Commercial Computer Software - Restricted
 Rights clause in FAR 52.227-19.
  
 Gaussian, Inc.
 340 Quinnipiac St., Bldg. 40, Wallingford CT 06492
  
  
 ---------------------------------------------------------------
 Warning -- This program may not be used in any manner that
 competes with the business of Gaussian, Inc. or will provide
 assistance to any competitor of Gaussian, Inc.  The licensee
 of this program is prohibited from giving any competitor of
 Gaussian, Inc. access to this program.  By using this program,
 the user acknowledges that Gaussian, Inc. is engaged in the
 business of creating and licensing software in the field of
 computational chemistry and represents and warrants to the
 licensee that it is not a competitor of Gaussian, Inc. and that
 it will not use this program in any manner prohibited above.
 ---------------------------------------------------------------
  

 Cite this work as:
 Gaussian 16, Revision C.01,
 M. J. Frisch, G. W. Trucks, H. B. Schlegel, G. E. Scuseria, 
 M. A. Robb, J. R. Cheeseman, G. Scalmani, V. Barone, 
 G. A. Petersson, H. Nakatsuji, X. Li, M. Caricato, A. V. Marenich, 
 J. Bloino, B. G. Janesko, R. Gomperts, B. Mennucci, H. P. Hratchian, 
 J. V. Ortiz, A. F. Izmaylov, J. L. Sonnenberg, D. Williams-Young, 
 F. Ding, F. Lipparini, F. Egidi, J. Goings, B. Peng, A. Petrone, 
 T. Henderson, D. Ranasinghe, V. G. Zakrzewski, J. Gao, N. Rega, 
 G. Zheng, W. Liang, M. Hada, M. Ehara, K. Toyota, R. Fukuda, 
 J. Hasegawa, M. Ishida, T. Nakajima, Y. Honda, O. Kitao, H. Nakai, 
 T. Vreven, K. Throssell, J. A. Montgomery, Jr., J. E. Peralta, 
 F. Ogliaro, M. J. Bearpark, J. J. Heyd, E. N. Brothers, K. N. Kudin, 
 V. N. Staroverov, T. A. Keith, R. Kobayashi, J. Normand, 
 K. Raghavachari, A. P. Rendell, J. C. Burant, S. S. Iyengar, 
 J. Tomasi, M. Cossi, J. M. Millam, M. Klene, C. Adamo, R. Cammi, 
 J. W. Ochterski, R. L. Martin, K. Morokuma, O. Farkas, 
 J. B. Foresman, and D. J. Fox, Gaussian, Inc., Wallingford CT, 2019.
 
 ******************************************
 Gaussian 16:  ES64L-G16RevC.01  3-Jul-2019
                27-Dec-2021 
 ******************************************
 SetSPE:  set environment variable "MP_BIND" = "yes"
 SetSPE:  set environment variable "MP_BLIST" = "0,1,2,3,4,5,6,7,8,9,10,11,12,13,14,15"
 ----------------------------------------------------------------------
 #N M062X/def2svp OPT FREQ=NoRaman temperature=273.15 Integral(Grid=Ult
 raFine)
 ----------------------------------------------------------------------
 1/18=20,19=15,26=4,38=1,112=273150/1,3;
 2/9=110,12=2,17=6,18=5,40=1/2;
 3/5=43,7=101,11=2,25=1,30=1,71=1,74=-55,75=-5/1,2,3;
 4//1;
 5/5=2,38=5/2;
 6/7=2,8=2,9=2,10=2,28=1/1;
 7//1,2,3,16;
 1/18=20,19=15,26=4/3(2);
 2/9=110/2;
 99//99;
 2/9=110/2;
 3/5=43,7=101,11=2,25=1,30=1,71=1,74=-55,75=-5/1,2,3;
 4/5=5,16=3,69=1/1;
 5/5=2,38=5/2;
 7//1,2,3,16;
 1/18=20,19=15,26=4/3(-5);
 2/9=110/2;
 6/7=2,8=2,9=2,10=2,19=2,28=1/1;
 99/9=1/99;
 ---------
 axMeCyhex
 ---------
 Symbolic Z-matrix:
 Charge =  0 Multiplicity = 1
 C
 C                    1    B1
 C                    2    B2       1    A1
 C                    3    B3       2    A2       1    D1       0
 C                    4    B4       3    A3       2    D2       0
 C                    1    B5       2    A4       3    D3       0
 H                    3    B6       2    A5       1    D4       0
 H                    2    B7       1    A6       6    D5       0
 H                    1    B8       6    A7       5    D6       0
 H                    1    B9       6    A8       5    D7       0
 H                    4    B10      3    A9       2    D8       0
 H                    4    B11      3    A10      2    D9       0
 H                    5    B12      4    A11      3    D10      0
 H                    5    B13      4    A12      3    D11      0
 H                    6    B14      1    A13      2    D12      0
 H                    6    B15      1    A14      2    D13      0
 H                    3    B16      2    A15      1    D14      0
 C                    2    B17      1    A16      6    D15      0
 H                    18   B18      2    A17      1    D16      0
 H                    18   B19      2    A18      1    D17      0
 H                    18   B20      2    A19      1    D18      0
       Variables:
  B1                    1.51511                  
  B2                    1.51518                  
  B3                    1.51543                  
  B4                    1.51513                  
  B5                    1.51499                  
  B6                    1.12087                  
  B7                    1.121                    
  B8                    1.12177                  
  B9                    1.12093                  
  B10                   1.12176                  
  B11                   1.12091                  
  B12                   1.12096                  
  B13                   1.12182                  
  B14                   1.12176                  
  B15                   1.12098                  
  B16                   1.12168                  
  B17                   1.54                     
  B18                   1.07                     
  B19                   1.07                     
  B20                   1.07                     
  A1                  111.36252                  
  A2                  111.24128                  
  A3                  111.26574                  
  A4                  111.30937                  
  A5                  109.59001                  
  A6                  109.55954                  
  A7                  109.40741                  
  A8                  109.57492                  
  A9                  109.41107                  
  A10                 109.58677                  
  A11                 109.55885                  
  A12                 109.38713                  
  A13                 109.41083                  
  A14                 109.5686                   
  A15                 109.4252                   
  A16                 109.39682                  
  A17                 109.4712                   
  A18                 109.4712                   
  A19                 109.47123                  
  D1                   55.25714                  
  D2                  -55.23664                  
  D3                  -55.19283                  
  D4                  176.59527                  
  D5                 -176.56184                  
  D6                  -65.94976                  
  D7                  176.44369                  
  D8                   65.79363                  
  D9                 -176.57423                  
  D10                 176.61579                  
  D11                 -65.8064                   
  D12                 -65.96332                  
  D13                 176.42533                  
  D14                 -65.75731                  
  D15                  65.84972                  
  D16                  59.09716                  
  D17                 179.09718                  
  D18                 -60.90283                  
 
     3 tetrahedral angles replaced.

 GradGradGradGradGradGradGradGradGradGradGradGradGradGradGradGradGradGrad
 Berny optimization.
 Initialization pass.
                           ----------------------------
                           !    Initial Parameters    !
                           ! (Angstroms and Degrees)  !
 --------------------------                            --------------------------
 ! Name  Definition              Value          Derivative Info.                !
 --------------------------------------------------------------------------------
 ! R1    R(1,2)                  1.5151         estimate D2E/DX2                !
 ! R2    R(1,6)                  1.515          estimate D2E/DX2                !
 ! R3    R(1,9)                  1.1218         estimate D2E/DX2                !
 ! R4    R(1,10)                 1.1209         estimate D2E/DX2                !
 ! R5    R(2,3)                  1.5152         estimate D2E/DX2                !
 ! R6    R(2,8)                  1.121          estimate D2E/DX2                !
 ! R7    R(2,18)                 1.54           estimate D2E/DX2                !
 ! R8    R(3,4)                  1.5154         estimate D2E/DX2                !
 ! R9    R(3,7)                  1.1209         estimate D2E/DX2                !
 ! R10   R(3,17)                 1.1217         estimate D2E/DX2                !
 ! R11   R(4,5)                  1.5151         estimate D2E/DX2                !
 ! R12   R(4,11)                 1.1218         estimate D2E/DX2                !
 ! R13   R(4,12)                 1.1209         estimate D2E/DX2                !
 ! R14   R(5,6)                  1.5151         estimate D2E/DX2                !
 ! R15   R(5,13)                 1.121          estimate D2E/DX2                !
 ! R16   R(5,14)                 1.1218         estimate D2E/DX2                !
 ! R17   R(6,15)                 1.1218         estimate D2E/DX2                !
 ! R18   R(6,16)                 1.121          estimate D2E/DX2                !
 ! R19   R(18,19)                1.07           estimate D2E/DX2                !
 ! R20   R(18,20)                1.07           estimate D2E/DX2                !
 ! R21   R(18,21)                1.07           estimate D2E/DX2                !
 ! A1    A(2,1,6)              111.3094         estimate D2E/DX2                !
 ! A2    A(2,1,9)              109.4042         estimate D2E/DX2                !
 ! A3    A(2,1,10)             109.5772         estimate D2E/DX2                !
 ! A4    A(6,1,9)              109.4074         estimate D2E/DX2                !
 ! A5    A(6,1,10)             109.5749         estimate D2E/DX2                !
 ! A6    A(9,1,10)             107.4863         estimate D2E/DX2                !
 ! A7    A(1,2,3)              111.3625         estimate D2E/DX2                !
 ! A8    A(1,2,8)              109.5595         estimate D2E/DX2                !
 ! A9    A(1,2,18)             109.3968         estimate D2E/DX2                !
 ! A10   A(3,2,8)              109.5638         estimate D2E/DX2                !
 ! A11   A(3,2,18)             109.3908         estimate D2E/DX2                !
 ! A12   A(8,2,18)             107.4839         estimate D2E/DX2                !
 ! A13   A(2,3,4)              111.2413         estimate D2E/DX2                !
 ! A14   A(2,3,7)              109.59           estimate D2E/DX2                !
 ! A15   A(2,3,17)             109.4252         estimate D2E/DX2                !
 ! A16   A(4,3,7)              109.586          estimate D2E/DX2                !
 ! A17   A(4,3,17)             109.4158         estimate D2E/DX2                !
 ! A18   A(7,3,17)             107.5042         estimate D2E/DX2                !
 ! A19   A(3,4,5)              111.2657         estimate D2E/DX2                !
 ! A20   A(3,4,11)             109.4111         estimate D2E/DX2                !
 ! A21   A(3,4,12)             109.5868         estimate D2E/DX2                !
 ! A22   A(5,4,11)             109.4233         estimate D2E/DX2                !
 ! A23   A(5,4,12)             109.5746         estimate D2E/DX2                !
 ! A24   A(11,4,12)            107.5            estimate D2E/DX2                !
 ! A25   A(4,5,6)              111.3744         estimate D2E/DX2                !
 ! A26   A(4,5,13)             109.5589         estimate D2E/DX2                !
 ! A27   A(4,5,14)             109.3871         estimate D2E/DX2                !
 ! A28   A(6,5,13)             109.5649         estimate D2E/DX2                !
 ! A29   A(6,5,14)             109.3914         estimate D2E/DX2                !
 ! A30   A(13,5,14)            107.4801         estimate D2E/DX2                !
 ! A31   A(1,6,5)              111.2962         estimate D2E/DX2                !
 ! A32   A(1,6,15)             109.4108         estimate D2E/DX2                !
 ! A33   A(1,6,16)             109.5686         estimate D2E/DX2                !
 ! A34   A(5,6,15)             109.42           estimate D2E/DX2                !
 ! A35   A(5,6,16)             109.5728         estimate D2E/DX2                !
 ! A36   A(15,6,16)            107.4917         estimate D2E/DX2                !
 ! A37   A(2,18,19)            109.4712         estimate D2E/DX2                !
 ! A38   A(2,18,20)            109.4712         estimate D2E/DX2                !
 ! A39   A(2,18,21)            109.4712         estimate D2E/DX2                !
 ! A40   A(19,18,20)           109.4712         estimate D2E/DX2                !
 ! A41   A(19,18,21)           109.4712         estimate D2E/DX2                !
 ! A42   A(20,18,21)           109.4712         estimate D2E/DX2                !
 ! D1    D(6,1,2,3)            -55.1928         estimate D2E/DX2                !
 ! D2    D(6,1,2,8)           -176.5618         estimate D2E/DX2                !
 ! D3    D(6,1,2,18)            65.8497         estimate D2E/DX2                !
 ! D4    D(9,1,2,3)             65.8411         estimate D2E/DX2                !
 ! D5    D(9,1,2,8)            -55.5279         estimate D2E/DX2                !
 ! D6    D(9,1,2,18)          -173.1163         estimate D2E/DX2                !
 ! D7    D(10,1,2,3)          -176.5529         estimate D2E/DX2                !
 ! D8    D(10,1,2,8)            62.0781         estimate D2E/DX2                !
 ! D9    D(10,1,2,18)          -55.5104         estimate D2E/DX2                !
 ! D10   D(2,1,6,5)             55.0823         estimate D2E/DX2                !
 ! D11   D(2,1,6,15)           -65.9633         estimate D2E/DX2                !
 ! D12   D(2,1,6,16)           176.4253         estimate D2E/DX2                !
 ! D13   D(9,1,6,5)            -65.9498         estimate D2E/DX2                !
 ! D14   D(9,1,6,15)           173.0046         estimate D2E/DX2                !
 ! D15   D(9,1,6,16)            55.3933         estimate D2E/DX2                !
 ! D16   D(10,1,6,5)           176.4437         estimate D2E/DX2                !
 ! D17   D(10,1,6,15)           55.3981         estimate D2E/DX2                !
 ! D18   D(10,1,6,16)          -62.2133         estimate D2E/DX2                !
 ! D19   D(1,2,3,4)             55.2571         estimate D2E/DX2                !
 ! D20   D(1,2,3,7)            176.5953         estimate D2E/DX2                !
 ! D21   D(1,2,3,17)           -65.7573         estimate D2E/DX2                !
 ! D22   D(8,2,3,4)            176.6237         estimate D2E/DX2                !
 ! D23   D(8,2,3,7)            -62.0382         estimate D2E/DX2                !
 ! D24   D(8,2,3,17)            55.6092         estimate D2E/DX2                !
 ! D25   D(18,2,3,4)           -65.7889         estimate D2E/DX2                !
 ! D26   D(18,2,3,7)            55.5492         estimate D2E/DX2                !
 ! D27   D(18,2,3,17)          173.1966         estimate D2E/DX2                !
 ! D28   D(1,2,18,19)           59.0972         estimate D2E/DX2                !
 ! D29   D(1,2,18,20)          179.0972         estimate D2E/DX2                !
 ! D30   D(1,2,18,21)          -60.9028         estimate D2E/DX2                !
 ! D31   D(3,2,18,19)         -178.6715         estimate D2E/DX2                !
 ! D32   D(3,2,18,20)          -58.6715         estimate D2E/DX2                !
 ! D33   D(3,2,18,21)           61.3285         estimate D2E/DX2                !
 ! D34   D(8,2,18,19)          -59.7863         estimate D2E/DX2                !
 ! D35   D(8,2,18,20)           60.2137         estimate D2E/DX2                !
 ! D36   D(8,2,18,21)         -179.7863         estimate D2E/DX2                !
 ! D37   D(2,3,4,5)            -55.2366         estimate D2E/DX2                !
 ! D38   D(2,3,4,11)            65.7936         estimate D2E/DX2                !
 ! D39   D(2,3,4,12)          -176.5742         estimate D2E/DX2                !
 ! D40   D(7,3,4,5)           -176.5771         estimate D2E/DX2                !
 ! D41   D(7,3,4,11)           -55.5468         estimate D2E/DX2                !
 ! D42   D(7,3,4,12)            62.0853         estimate D2E/DX2                !
 ! D43   D(17,3,4,5)            65.7833         estimate D2E/DX2                !
 ! D44   D(17,3,4,11)         -173.1864         estimate D2E/DX2                !
 ! D45   D(17,3,4,12)          -55.5543         estimate D2E/DX2                !
 ! D46   D(3,4,5,6)             55.2381         estimate D2E/DX2                !
 ! D47   D(3,4,5,13)           176.6158         estimate D2E/DX2                !
 ! D48   D(3,4,5,14)           -65.8064         estimate D2E/DX2                !
 ! D49   D(11,4,5,6)           -65.785          estimate D2E/DX2                !
 ! D50   D(11,4,5,13)           55.5927         estimate D2E/DX2                !
 ! D51   D(11,4,5,14)          173.1705         estimate D2E/DX2                !
 ! D52   D(12,4,5,6)           176.5828         estimate D2E/DX2                !
 ! D53   D(12,4,5,13)          -62.0395         estimate D2E/DX2                !
 ! D54   D(12,4,5,14)           55.5383         estimate D2E/DX2                !
 ! D55   D(4,5,6,1)            -55.1527         estimate D2E/DX2                !
 ! D56   D(4,5,6,15)            65.8876         estimate D2E/DX2                !
 ! D57   D(4,5,6,16)          -176.4932         estimate D2E/DX2                !
 ! D58   D(13,5,6,1)          -176.5268         estimate D2E/DX2                !
 ! D59   D(13,5,6,15)          -55.4866         estimate D2E/DX2                !
 ! D60   D(13,5,6,16)           62.1326         estimate D2E/DX2                !
 ! D61   D(14,5,6,1)            65.8893         estimate D2E/DX2                !
 ! D62   D(14,5,6,15)         -173.0704         estimate D2E/DX2                !
 ! D63   D(14,5,6,16)          -55.4512         estimate D2E/DX2                !
 --------------------------------------------------------------------------------
 Trust Radius=3.00D-01 FncErr=1.00D-07 GrdErr=1.00D-06 EigMax=2.50D+02 EigMin=1.00D-04
 Number of steps in this run=    126 maximum allowed number of steps=    126.
 GradGradGradGradGradGradGradGradGradGradGradGradGradGradGradGradGradGrad

                          Input orientation:                          
 ---------------------------------------------------------------------
 Center     Atomic      Atomic             Coordinates (Angstroms)
 Number     Number       Type             X           Y           Z
 ---------------------------------------------------------------------
      1          6           0        0.000000    0.000000    0.000000
      2          6           0        0.000000    0.000000    1.515106
      3          6           0        1.411078    0.000000    2.067037
      4          6           0        2.215615    1.160661    1.517374
      5          6           0        2.216276    1.160172    0.002249
      6          6           0        0.805655    1.158876   -0.550551
      7          1           0        1.377087    0.062714    3.185636
      8          1           0       -0.549859   -0.901910    1.890400
      9          1           0        0.433029   -0.965385   -0.372688
     10          1           0       -1.054220    0.063502   -0.375597
     11          1           0        1.780770    2.125272    1.889909
     12          1           0        3.269752    1.098666    1.893397
     13          1           0        2.765704    2.062286   -0.373071
     14          1           0        2.762877    0.253849   -0.369606
     15          1           0        0.299933    2.124191   -0.284547
     16          1           0        0.840716    1.093938   -1.669099
     17          1           0        1.916711   -0.964546    1.798419
     18          6           0       -0.749064    1.244558    2.026553
     19          1           0       -1.752908    1.233859    1.656306
     20          1           0       -0.763421    1.237587    3.096434
     21          1           0       -0.251317    2.126953    1.682276
 ---------------------------------------------------------------------
                    Distance matrix (angstroms):
                    1          2          3          4          5
     1  C    0.000000
     2  C    1.515106   0.000000
     3  C    2.502755   1.515180   0.000000
     4  C    2.925493   2.501217   1.515435   0.000000
     5  C    2.501576   2.923459   2.501538   1.515125   0.000000
     6  C    1.514985   2.501802   2.925970   2.502859   1.515071
     7  H    3.471106   2.165865   1.120871   2.166037   3.470246
     8  H    2.165502   1.120996   2.165621   3.470042   3.933039
     9  H    1.121775   2.164081   2.800144   3.357085   2.799739
    10  H    1.120931   2.165680   3.471050   3.934326   3.470100
    11  H    3.355545   2.797928   2.164446   1.121761   2.164334
    12  H    3.934882   3.470079   2.166076   1.120911   2.165649
    13  H    3.470061   3.932856   3.470182   2.165481   1.120958
    14  H    2.799024   3.354112   2.798040   2.163908   1.121816
    15  H    2.164050   2.800160   3.358091   2.800919   2.164245
    16  H    2.165501   3.470254   3.934555   3.471082   2.165631
    17  H    2.799722   2.164347   1.121681   2.164448   2.798284
    18  C    2.493379   1.540000   2.493347   3.009257   3.591402
    19  H    2.708957   2.148263   3.420806   3.971629   4.300670
    20  H    3.420868   2.148263   2.705499   3.372537   4.296344
    21  H    2.723442   2.148263   2.726816   2.654556   3.137861
                    6          7          8          9         10
     6  C    0.000000
     7  H    3.935378   0.000000
     8  H    3.470230   2.514211   0.000000
     9  H    2.164017   3.822290   2.468130   0.000000
    10  H    2.165546   4.312034   2.514188   1.808460   0.000000
    11  H    2.800110   2.469011   3.820427   4.060531   4.173797
    12  H    3.471063   2.515007   4.311814   4.176415   4.991656
    13  H    2.165512   4.311721   4.990262   3.822063   4.311260
    14  H    2.163916   3.820562   4.173443   2.629588   3.821845
    15  H    1.121760   4.177573   3.822280   3.093697   2.467480
    16  H    1.120980   4.991950   4.311281   2.467327   2.515100
    17  H    3.355745   1.808543   2.469079   2.629642   3.822258
    18  C    3.010973   2.694577   2.159987   3.469517   2.694131
    19  H    3.379658   3.675228   2.462445   3.705646   2.446739
    20  H    3.970982   2.443370   2.465274   4.280116   3.676689
    21  H    2.653277   3.028675   3.050648   3.775415   3.022800
                   11         12         13         14         15
    11  H    0.000000
    12  H    1.808590   0.000000
    13  H    2.468834   2.513863   0.000000
    14  H    3.093892   2.468161   1.808443   0.000000
    15  H    2.630806   3.822953   2.468136   3.093785   0.000000
    16  H    3.822812   4.311800   2.514551   2.467617   1.808550
    17  H    3.094160   2.469126   3.820716   2.626940   4.061159
    18  C    2.682236   4.023667   4.333644   4.365411   2.686137
    19  H    3.651858   5.030070   5.022203   5.045499   2.962053
    20  H    2.952388   4.211067   5.017202   5.041424   3.653467
    21  H    2.042668   3.674217   3.651171   4.099280   2.042615
                   16         17         18         19         20
    16  H    0.000000
    17  H    4.173584   0.000000
    18  C    4.025908   3.469660   0.000000
    19  H    4.219572   4.280104   1.070000   0.000000
    20  H    5.030328   3.703693   1.070000   1.747303   0.000000
    21  H    3.673060   3.777724   1.070000   1.747303   1.747303
                   21
    21  H    0.000000
 Stoichiometry    C7H14
 Framework group  C1[X(C7H14)]
 Deg. of freedom    57
 Full point group                 C1      NOp   1
 Largest Abelian subgroup         C1      NOp   1
 Largest concise Abelian subgroup C1      NOp   1
                         Standard orientation:                         
 ---------------------------------------------------------------------
 Center     Atomic      Atomic             Coordinates (Angstroms)
 Number     Number       Type             X           Y           Z
 ---------------------------------------------------------------------
      1          6           0       -0.269793   -1.251823    0.658300
      2          6           0       -1.111596   -0.000982    0.508936
      3          6           0       -0.271527    1.250931    0.659818
      4          6           0        0.891659    1.251963   -0.311542
      5          6           0        1.733925    0.001479   -0.161600
      6          6           0        0.894481   -1.250895   -0.311054
      7          1           0       -0.909630    2.155288    0.482861
      8          1           0       -1.925462   -0.002073    1.279815
      9          1           0        0.119525   -1.315849    1.708400
     10          1           0       -0.906671   -2.156743    0.479438
     11          1           0        0.500815    1.314837   -1.361130
     12          1           0        1.528498    2.157189   -0.134219
     13          1           0        2.547490    0.002305   -0.932739
     14          1           0        2.225454    0.002270    0.846799
     15          1           0        0.505351   -1.315964   -1.361144
     16          1           0        1.533035   -2.154608   -0.131756
     17          1           0        0.119118    1.313793    1.709396
     18          6           0       -1.785777   -0.000532   -0.875650
     19          1           0       -2.397729   -0.872662   -0.974664
     20          1           0       -2.393103    0.874634   -0.976349
     21          1           0       -1.034923   -0.003255   -1.637957
 ---------------------------------------------------------------------
 Rotational constants (GHZ):           3.4671471           2.6843651           2.0432564
 Standard basis: def2SVP (5D, 7F)
 There are   175 symmetry adapted cartesian basis functions of A   symmetry.
 There are   168 symmetry adapted basis functions of A   symmetry.
   168 basis functions,   273 primitive gaussians,   175 cartesian basis functions
    28 alpha electrons       28 beta electrons
       nuclear repulsion energy       336.5692409184 Hartrees.
 NAtoms=   21 NActive=   21 NUniq=   21 SFac= 1.00D+00 NAtFMM=   60 NAOKFM=F Big=F
 Integral buffers will be    131072 words long.
 Raffenetti 2 integral format.
 Two-electron integral symmetry is turned on.
 One-electron integrals computed using PRISM.
   1 Symmetry operations used in ECPInt.
 ECPInt:  NShTT=    3570 NPrTT=   12068 LenC2=    3568 LenP2D=   10331.
 LDataN:  DoStor=T MaxTD1= 4 Len=   56
 NBasis=   168 RedAO= T EigKep=  1.28D-03  NBF=   168
 NBsUse=   168 1.00D-06 EigRej= -1.00D+00 NBFU=   168
 ExpMin= 1.22D-01 ExpMax= 1.24D+03 ExpMxC= 1.86D+02 IAcc=3 IRadAn=         5 AccDes= 0.00D+00
 Harris functional with IExCor= 1009 and IRadAn=       5 diagonalized for initial guess.
 HarFok:  IExCor= 1009 AccDes= 0.00D+00 IRadAn=         5 IDoV= 1 UseB2=F ITyADJ=14
 ICtDFT=  3500011 ScaDFX=  1.000000  1.000000  1.000000  1.000000
 FoFCou: FMM=F IPFlag=           0 FMFlag=      100000 FMFlg1=           0
         NFxFlg=           0 DoJE=T BraDBF=F KetDBF=T FulRan=T
         wScrn=  0.000000 ICntrl=       500 IOpCl=  0 I1Cent=   200000004 NGrid=           0
         NMat0=    1 NMatS0=      1 NMatT0=    0 NMatD0=    1 NMtDS0=    0 NMtDT0=    0
 Petite list used in FoFCou.
 Requested convergence on RMS density matrix=1.00D-08 within 128 cycles.
 Requested convergence on MAX density matrix=1.00D-06.
 Requested convergence on             energy=1.00D-06.
 No special actions if energy rises.
 Integral accuracy reduced to 1.0D-05 until final iterations.
 Initial convergence to 1.0D-05 achieved.  Increase integral accuracy.
 SCF Done:  E(RM062X) =  -274.830969150     A.U. after   12 cycles
            NFock= 12  Conv=0.88D-08     -V/T= 2.0126

 **********************************************************************

            Population analysis using the SCF Density.

 **********************************************************************

 Orbital symmetries:
       Occupied  (A) (A) (A) (A) (A) (A) (A) (A) (A) (A) (A) (A)
                 (A) (A) (A) (A) (A) (A) (A) (A) (A) (A) (A) (A)
                 (A) (A) (A) (A)
       Virtual   (A) (A) (A) (A) (A) (A) (A) (A) (A) (A) (A) (A)
                 (A) (A) (A) (A) (A) (A) (A) (A) (A) (A) (A) (A)
                 (A) (A) (A) (A) (A) (A) (A) (A) (A) (A) (A) (A)
                 (A) (A) (A) (A) (A) (A) (A) (A) (A) (A) (A) (A)
                 (A) (A) (A) (A) (A) (A) (A) (A) (A) (A) (A) (A)
                 (A) (A) (A) (A) (A) (A) (A) (A) (A) (A) (A) (A)
                 (A) (A) (A) (A) (A) (A) (A) (A) (A) (A) (A) (A)
                 (A) (A) (A) (A) (A) (A) (A) (A) (A) (A) (A) (A)
                 (A) (A) (A) (A) (A) (A) (A) (A) (A) (A) (A) (A)
                 (A) (A) (A) (A) (A) (A) (A) (A) (A) (A) (A) (A)
                 (A) (A) (A) (A) (A) (A) (A) (A) (A) (A) (A) (A)
                 (A) (A) (A) (A) (A) (A) (A) (A)
 The electronic state is 1-A.
 Alpha  occ. eigenvalues --  -10.54462 -10.54336 -10.54291 -10.54282 -10.54161
 Alpha  occ. eigenvalues --  -10.54157 -10.52825  -0.93561  -0.84561  -0.82497
 Alpha  occ. eigenvalues --   -0.75780  -0.67600  -0.66521  -0.59302  -0.55629
 Alpha  occ. eigenvalues --   -0.51890  -0.50913  -0.48867  -0.46490  -0.46294
 Alpha  occ. eigenvalues --   -0.43554  -0.42128  -0.41855  -0.39091  -0.38814
 Alpha  occ. eigenvalues --   -0.35634  -0.34705  -0.34590
 Alpha virt. eigenvalues --    0.08495   0.10411   0.12590   0.13351   0.15405
 Alpha virt. eigenvalues --    0.15978   0.17077   0.17358   0.18079   0.18702
 Alpha virt. eigenvalues --    0.19695   0.20357   0.23189   0.24609   0.25270
 Alpha virt. eigenvalues --    0.26813   0.28154   0.28890   0.30463   0.32698
 Alpha virt. eigenvalues --    0.33302   0.46356   0.46435   0.46714   0.48280
 Alpha virt. eigenvalues --    0.49161   0.49391   0.50107   0.56926   0.63748
 Alpha virt. eigenvalues --    0.66604   0.67005   0.68101   0.68989   0.69782
 Alpha virt. eigenvalues --    0.69872   0.70130   0.71223   0.71267   0.73112
 Alpha virt. eigenvalues --    0.73179   0.74150   0.74632   0.74670   0.75136
 Alpha virt. eigenvalues --    0.75298   0.76552   0.76789   0.77664   0.79109
 Alpha virt. eigenvalues --    0.79527   0.80679   0.83138   0.85640   0.88201
 Alpha virt. eigenvalues --    0.92479   1.02050   1.07345   1.12889   1.17317
 Alpha virt. eigenvalues --    1.19674   1.20496   1.22770   1.28400   1.30235
 Alpha virt. eigenvalues --    1.31939   1.34395   1.35578   1.39975   1.42625
 Alpha virt. eigenvalues --    1.56872   1.58205   1.62732   1.62750   1.66655
 Alpha virt. eigenvalues --    1.74066   1.76988   1.79036   1.79209   1.80442
 Alpha virt. eigenvalues --    1.81269   1.83194   1.83887   1.85860   1.86288
 Alpha virt. eigenvalues --    1.86383   1.87128   1.87488   1.87752   1.89214
 Alpha virt. eigenvalues --    1.90069   1.90836   1.91848   1.93446   1.93971
 Alpha virt. eigenvalues --    1.95279   1.95494   1.96192   2.02433   2.05176
 Alpha virt. eigenvalues --    2.05216   2.08268   2.09495   2.10333   2.11155
 Alpha virt. eigenvalues --    2.11644   2.24406   2.26332   2.26774   2.28313
 Alpha virt. eigenvalues --    2.30972   2.34925   2.40047   2.40136   2.45087
 Alpha virt. eigenvalues --    2.45824   2.51634   2.52058   2.58255   2.59188
 Alpha virt. eigenvalues --    2.60546   2.62017   2.62989   2.66884   2.67019
 Alpha virt. eigenvalues --    2.74909   2.84636   2.87871   2.89679   2.89881
 Alpha virt. eigenvalues --    2.93897   2.93926   2.98832   3.01125   3.05171
 Alpha virt. eigenvalues --    3.05270   3.06159   3.07743   3.11784   3.16536
          Condensed to atoms (all electrons):
               1          2          3          4          5          6
     1  C    4.753346   0.393297  -0.053938  -0.034808  -0.059600   0.409730
     2  C    0.393297   5.008936   0.393303  -0.064330  -0.018936  -0.064381
     3  C   -0.053938   0.393303   4.753225   0.409637  -0.059506  -0.034807
     4  C   -0.034808  -0.064330   0.409637   4.755650   0.421695  -0.061029
     5  C   -0.059600  -0.018936  -0.059506   0.421695   4.705420   0.421732
     6  C    0.409730  -0.064381  -0.034807  -0.061029   0.421732   4.755270
     7  H    0.009400  -0.025026   0.373479  -0.023495   0.008948   0.000343
     8  H   -0.026892   0.366078  -0.026922   0.010318  -0.000516   0.010314
     9  H    0.373527  -0.029334  -0.003165  -0.005373  -0.004504  -0.026424
    10  H    0.373472  -0.025122   0.009414   0.000336   0.008967  -0.023495
    11  H   -0.003293  -0.014870  -0.023479   0.380926  -0.029614  -0.004992
    12  H    0.000183   0.009930  -0.019992   0.365946  -0.018904   0.008836
    13  H    0.008578   0.000723   0.008572  -0.020999   0.368520  -0.021013
    14  H   -0.001536  -0.009480  -0.001530  -0.030262   0.374330  -0.030179
    15  H   -0.023460  -0.014794  -0.003255  -0.005026  -0.029631   0.380918
    16  H   -0.019983   0.009937   0.000174   0.008844  -0.018903   0.365924
    17  H   -0.003154  -0.029337   0.373616  -0.026489  -0.004487  -0.005392
    18  C   -0.075407   0.390512  -0.075425  -0.008294  -0.007818  -0.008312
    19  H    0.001494  -0.024924   0.008936   0.000114   0.000381  -0.003778
    20  H    0.008946  -0.025040   0.001488  -0.003826   0.000385   0.000111
    21  H   -0.012216  -0.030270  -0.012237   0.009164  -0.003388   0.009176
               7          8          9         10         11         12
     1  C    0.009400  -0.026892   0.373527   0.373472  -0.003293   0.000183
     2  C   -0.025026   0.366078  -0.029334  -0.025122  -0.014870   0.009930
     3  C    0.373479  -0.026922  -0.003165   0.009414  -0.023479  -0.019992
     4  C   -0.023495   0.010318  -0.005373   0.000336   0.380926   0.365946
     5  C    0.008948  -0.000516  -0.004504   0.008967  -0.029614  -0.018904
     6  C    0.000343   0.010314  -0.026424  -0.023495  -0.004992   0.008836
     7  H    0.674095  -0.005646  -0.000087  -0.000407  -0.007845  -0.005024
     8  H   -0.005646   0.697489  -0.007915  -0.005640  -0.000227  -0.000327
     9  H   -0.000087  -0.007915   0.681339  -0.026947   0.000197  -0.000034
    10  H   -0.000407  -0.005640  -0.026947   0.674196   0.000022   0.000053
    11  H   -0.007845  -0.000227   0.000197   0.000022   0.675786  -0.025255
    12  H   -0.005024  -0.000327  -0.000034   0.000053  -0.025255   0.668607
    13  H   -0.000393   0.000059  -0.000068  -0.000393  -0.008213  -0.005189
    14  H   -0.000088  -0.000096   0.006015  -0.000092   0.008535  -0.008531
    15  H    0.000023  -0.000233   0.008360  -0.007909   0.003009   0.000002
    16  H    0.000053  -0.000327  -0.008482  -0.004996   0.000002  -0.000376
    17  H   -0.026954  -0.007889   0.004424  -0.000088   0.008348  -0.008412
    18  C   -0.009101  -0.026461   0.010691  -0.009014   0.006594  -0.000184
    19  H    0.000251  -0.006926   0.000048   0.004533  -0.000480   0.000015
    20  H    0.004567  -0.006813  -0.000472   0.000250   0.001470  -0.000040
    21  H   -0.001116   0.008441  -0.000054  -0.001133  -0.000702  -0.000334
              13         14         15         16         17         18
     1  C    0.008578  -0.001536  -0.023460  -0.019983  -0.003154  -0.075407
     2  C    0.000723  -0.009480  -0.014794   0.009937  -0.029337   0.390512
     3  C    0.008572  -0.001530  -0.003255   0.000174   0.373616  -0.075425
     4  C   -0.020999  -0.030262  -0.005026   0.008844  -0.026489  -0.008294
     5  C    0.368520   0.374330  -0.029631  -0.018903  -0.004487  -0.007818
     6  C   -0.021013  -0.030179   0.380918   0.365924  -0.005392  -0.008312
     7  H   -0.000393  -0.000088   0.000023   0.000053  -0.026954  -0.009101
     8  H    0.000059  -0.000096  -0.000233  -0.000327  -0.007889  -0.026461
     9  H   -0.000068   0.006015   0.008360  -0.008482   0.004424   0.010691
    10  H   -0.000393  -0.000092  -0.007909  -0.004996  -0.000088  -0.009014
    11  H   -0.008213   0.008535   0.003009   0.000002   0.008348   0.006594
    12  H   -0.005189  -0.008531   0.000002  -0.000376  -0.008412  -0.000184
    13  H    0.671844  -0.027643  -0.008248  -0.005163  -0.000066  -0.000079
    14  H   -0.027643   0.686059   0.008540  -0.008560   0.006026   0.000748
    15  H   -0.008248   0.008540   0.675809  -0.025231   0.000198   0.006451
    16  H   -0.005163  -0.008560  -0.025231   0.668614  -0.000034  -0.000180
    17  H   -0.000066   0.006026   0.000198  -0.000034   0.681231   0.010696
    18  C   -0.000079   0.000748   0.006451  -0.000180   0.010696   4.618063
    19  H   -0.000013  -0.000002   0.001450  -0.000040  -0.000470   0.388592
    20  H   -0.000013  -0.000002  -0.000483   0.000015   0.000050   0.388711
    21  H    0.000284  -0.000147  -0.000597  -0.000341  -0.000062   0.411507
              19         20         21
     1  C    0.001494   0.008946  -0.012216
     2  C   -0.024924  -0.025040  -0.030270
     3  C    0.008936   0.001488  -0.012237
     4  C    0.000114  -0.003826   0.009164
     5  C    0.000381   0.000385  -0.003388
     6  C   -0.003778   0.000111   0.009176
     7  H    0.000251   0.004567  -0.001116
     8  H   -0.006926  -0.006813   0.008441
     9  H    0.000048  -0.000472  -0.000054
    10  H    0.004533   0.000250  -0.001133
    11  H   -0.000480   0.001470  -0.000702
    12  H    0.000015  -0.000040  -0.000334
    13  H   -0.000013  -0.000013   0.000284
    14  H   -0.000002  -0.000002  -0.000147
    15  H    0.001450  -0.000483  -0.000597
    16  H   -0.000040   0.000015  -0.000341
    17  H   -0.000470   0.000050  -0.000062
    18  C    0.388592   0.388711   0.411507
    19  H    0.643473  -0.019689  -0.021126
    20  H   -0.019689   0.643438  -0.021203
    21  H   -0.021126  -0.021203   0.634143
 Mulliken charges:
               1
     1  C   -0.017687
     2  C   -0.196873
     3  C   -0.017587
     4  C   -0.078700
     5  C   -0.054571
     6  C   -0.078549
     7  H    0.034024
     8  H    0.030133
     9  H    0.028259
    10  H    0.033993
    11  H    0.034081
    12  H    0.039031
    13  H    0.038914
    14  H    0.027897
    15  H    0.034106
    16  H    0.039054
    17  H    0.028245
    18  C   -0.012290
    19  H    0.028160
    20  H    0.028150
    21  H    0.032210
 Sum of Mulliken charges =  -0.00000
 Mulliken charges with hydrogens summed into heavy atoms:
               1
     1  C    0.044564
     2  C   -0.166740
     3  C    0.044682
     4  C   -0.005588
     5  C    0.012241
     6  C   -0.005389
    18  C    0.076230
 Electronic spatial extent (au):  <R**2>=            765.1407
 Charge=             -0.0000 electrons
 Dipole moment (field-independent basis, Debye):
    X=             -0.0198    Y=             -0.0005    Z=             -0.0312  Tot=              0.0370
 Quadrupole moment (field-independent basis, Debye-Ang):
   XX=            -47.2158   YY=            -47.3808   ZZ=            -47.0655
   XY=             -0.0000   XZ=              0.0623   YZ=              0.0002
 Traceless Quadrupole moment (field-independent basis, Debye-Ang):
   XX=              0.0049   YY=             -0.1601   ZZ=              0.1552
   XY=             -0.0000   XZ=              0.0623   YZ=              0.0002
 Octapole moment (field-independent basis, Debye-Ang**2):
  XXX=             -1.5509  YYY=              0.0049  ZZZ=              0.0697  XYY=             -1.0528
  XXY=             -0.0035  XXZ=              0.7996  XZZ=              1.3478  YZZ=             -0.0031
  YYZ=             -0.3140  XYZ=             -0.0016
 Hexadecapole moment (field-independent basis, Debye-Ang**3):
 XXXX=           -498.7666 YYYY=           -372.4247 ZZZZ=           -198.5318 XXXY=              0.0146
 XXXZ=             -2.6778 YYYX=             -0.0031 YYYZ=              0.0031 ZZZX=             -0.9906
 ZZZY=              0.0022 XXYY=           -140.1365 XXZZ=           -117.1215 YYZZ=            -98.8008
 XXYZ=             -0.0094 YYXZ=              2.7776 ZZXY=              0.0008
 N-N= 3.365692409184D+02 E-N=-1.306834677400D+03  KE= 2.714137448236D+02
   1 Symmetry operations used in ECPInt.
 ECPInt:  NShTT=    3570 NPrTT=   12068 LenC2=    3568 LenP2D=   10331.
 LDataN:  DoStor=T MaxTD1= 5 Len=  102
 Calling FoFJK, ICntrl=      2127 FMM=F ISym2X=0 I1Cent= 0 IOpClX= 0 NMat=1 NMatS=1 NMatT=0.
 ***** Axes restored to original set *****
 -------------------------------------------------------------------
 Center     Atomic                   Forces (Hartrees/Bohr)
 Number     Number              X              Y              Z
 -------------------------------------------------------------------
      1        6          -0.009708044   -0.014327792   -0.012723292
      2        6          -0.019023762   -0.000497386    0.013063841
      3        6           0.008359587   -0.013985801    0.013495164
      4        6           0.015305095    0.009808092    0.011161456
      5        6           0.015652151    0.006459336   -0.010637947
      6        6          -0.004729468    0.009998977   -0.018416479
      7        1           0.001049730   -0.003231406   -0.011402237
      8        1           0.006599931    0.008064326   -0.004502048
      9        1          -0.004662803    0.009354175    0.002486998
     10        1           0.011019269   -0.003244544    0.003173118
     11        1           0.008044741   -0.009805562   -0.003374583
     12        1          -0.011963931    0.003163469   -0.002646036
     13        1          -0.003889857   -0.011510778    0.002645208
     14        1          -0.004866201    0.008925109    0.003315753
     15        1           0.006091415   -0.009797364   -0.006206879
     16        1          -0.001910798    0.003218642    0.012130700
     17        1          -0.003996010    0.009315345    0.003439704
     18        6           0.010410406   -0.024862827   -0.007143438
     19        1          -0.020172847    0.002547558   -0.006004352
     20        1          -0.001658265    0.002613885    0.020981717
     21        1           0.004049662    0.017794547   -0.002836368
 -------------------------------------------------------------------
 Cartesian Forces:  Max     0.024862827 RMS     0.010041806

 GradGradGradGradGradGradGradGradGradGradGradGradGradGradGradGradGradGrad
 Berny optimization.
 FormGI is forming the generalized inverse of G from B-inverse, IUseBI=4.
 Internal  Forces:  Max     0.020983556 RMS     0.005746055
 Search for a local minimum.
 Step number   1 out of a maximum of  126
 All quantities printed in internal units (Hartrees-Bohrs-Radians)
 Mixed Optimization -- RFO/linear search
 Second derivative matrix not updated -- first step.
 ITU=  0
     Eigenvalues ---    0.00237   0.00747   0.00748   0.00839   0.02116
     Eigenvalues ---    0.02203   0.03854   0.04158   0.04295   0.04530
     Eigenvalues ---    0.04713   0.04775   0.04966   0.05017   0.05659
     Eigenvalues ---    0.05720   0.05720   0.05723   0.06287   0.06519
     Eigenvalues ---    0.07878   0.08175   0.08180   0.08186   0.08189
     Eigenvalues ---    0.08199   0.08695   0.12082   0.12097   0.14190
     Eigenvalues ---    0.14687   0.16000   0.16000   0.16000   0.17345
     Eigenvalues ---    0.20816   0.28519   0.28767   0.29166   0.29311
     Eigenvalues ---    0.30833   0.30841   0.30842   0.31380   0.31384
     Eigenvalues ---    0.31386   0.31386   0.31394   0.31463   0.31465
     Eigenvalues ---    0.31467   0.31470   0.31472   0.31476   0.37230
     Eigenvalues ---    0.37230   0.37230
 RFO step:  Lambda=-1.61994375D-02 EMin= 2.36824211D-03
 Linear search not attempted -- first point.
 Iteration  1 RMS(Cart)=  0.07801877 RMS(Int)=  0.00200502
 Iteration  2 RMS(Cart)=  0.00238639 RMS(Int)=  0.00053214
 Iteration  3 RMS(Cart)=  0.00000431 RMS(Int)=  0.00053213
 Iteration  4 RMS(Cart)=  0.00000000 RMS(Int)=  0.00053213
 Variable       Old X    -DE/DX   Delta X   Delta X   Delta X     New X
                                 (Linear)    (Quad)   (Total)
    R1        2.86314   0.01413   0.00000   0.04381   0.04441   2.90755
    R2        2.86291   0.01103   0.00000   0.03395   0.03396   2.89686
    R3        2.11985  -0.01068   0.00000  -0.03235  -0.03235   2.08749
    R4        2.11825  -0.01161   0.00000  -0.03508  -0.03508   2.08317
    R5        2.86327   0.01410   0.00000   0.04376   0.04436   2.90764
    R6        2.11838  -0.01123   0.00000  -0.03396  -0.03396   2.08442
    R7        2.91018   0.00372   0.00000   0.01235   0.01235   2.92253
    R8        2.86376   0.01075   0.00000   0.03315   0.03316   2.89691
    R9        2.11814  -0.01159   0.00000  -0.03502  -0.03502   2.08312
   R10        2.11967  -0.01064   0.00000  -0.03222  -0.03222   2.08745
   R11        2.86317   0.01010   0.00000   0.03084   0.03022   2.89340
   R12        2.11982  -0.01267   0.00000  -0.03840  -0.03840   2.08142
   R13        2.11821  -0.01231   0.00000  -0.03721  -0.03721   2.08101
   R14        2.86307   0.01016   0.00000   0.03096   0.03035   2.89342
   R15        2.11830  -0.01206   0.00000  -0.03645  -0.03645   2.08185
   R16        2.11992  -0.01067   0.00000  -0.03235  -0.03235   2.08758
   R17        2.11982  -0.01265   0.00000  -0.03833  -0.03833   2.08149
   R18        2.11834  -0.01235   0.00000  -0.03733  -0.03733   2.08102
   R19        2.02201   0.02098   0.00000   0.05399   0.05399   2.07600
   R20        2.02201   0.02098   0.00000   0.05401   0.05401   2.07602
   R21        2.02201   0.01748   0.00000   0.04499   0.04499   2.06700
    A1        1.94271   0.00455   0.00000   0.02912   0.03007   1.97278
    A2        1.90946  -0.00007   0.00000  -0.00946  -0.00939   1.90007
    A3        1.91248  -0.00204   0.00000   0.00348   0.00208   1.91456
    A4        1.90952  -0.00366   0.00000  -0.02942  -0.02950   1.88002
    A5        1.91244   0.00131   0.00000   0.02100   0.02005   1.93249
    A6        1.87599  -0.00027   0.00000  -0.01644  -0.01610   1.85989
    A7        1.94364  -0.00693   0.00000  -0.02893  -0.03026   1.91339
    A8        1.91217   0.00053   0.00000  -0.02011  -0.02074   1.89144
    A9        1.90933   0.00533   0.00000   0.05240   0.05180   1.96113
   A10        1.91225   0.00053   0.00000  -0.02012  -0.02075   1.89150
   A11        1.90923   0.00537   0.00000   0.05275   0.05215   1.96138
   A12        1.87595  -0.00473   0.00000  -0.03598  -0.03467   1.84128
   A13        1.94153   0.00467   0.00000   0.02990   0.03085   1.97237
   A14        1.91271  -0.00206   0.00000   0.00346   0.00204   1.91474
   A15        1.90983  -0.00012   0.00000  -0.00977  -0.00969   1.90014
   A16        1.91264   0.00126   0.00000   0.02092   0.01995   1.93259
   A17        1.90967  -0.00368   0.00000  -0.02973  -0.02981   1.87986
   A18        1.87630  -0.00025   0.00000  -0.01650  -0.01616   1.86014
   A19        1.94195  -0.00298   0.00000  -0.00404  -0.00404   1.93792
   A20        1.90958   0.00152   0.00000   0.01196   0.01189   1.92147
   A21        1.91265   0.00146   0.00000   0.00542   0.00549   1.91814
   A22        1.90980   0.00146   0.00000   0.00407   0.00423   1.91403
   A23        1.91244   0.00077   0.00000   0.00564   0.00546   1.91789
   A24        1.87623  -0.00219   0.00000  -0.02372  -0.02370   1.85253
   A25        1.94385   0.00422   0.00000   0.01550   0.01508   1.95893
   A26        1.91216   0.00006   0.00000   0.01419   0.01389   1.92606
   A27        1.90917  -0.00209   0.00000  -0.01488  -0.01480   1.89437
   A28        1.91227   0.00006   0.00000   0.01411   0.01382   1.92608
   A29        1.90924  -0.00209   0.00000  -0.01492  -0.01483   1.89441
   A30        1.87588  -0.00033   0.00000  -0.01521  -0.01510   1.86079
   A31        1.94248  -0.00302   0.00000  -0.00413  -0.00413   1.93836
   A32        1.90958   0.00155   0.00000   0.01222   0.01214   1.92172
   A33        1.91233   0.00147   0.00000   0.00537   0.00544   1.91778
   A34        1.90974   0.00147   0.00000   0.00412   0.00428   1.91402
   A35        1.91241   0.00076   0.00000   0.00546   0.00528   1.91769
   A36        1.87608  -0.00220   0.00000  -0.02372  -0.02370   1.85239
   A37        1.91063   0.00240   0.00000   0.01277   0.01255   1.92318
   A38        1.91063   0.00242   0.00000   0.01293   0.01270   1.92334
   A39        1.91063   0.00744   0.00000   0.04388   0.04346   1.95410
   A40        1.91063  -0.00293   0.00000  -0.01996  -0.01998   1.89066
   A41        1.91063  -0.00467   0.00000  -0.02487  -0.02527   1.88536
   A42        1.91063  -0.00466   0.00000  -0.02476  -0.02516   1.88547
    D1       -0.96330  -0.00030   0.00000   0.01850   0.01891  -0.94439
    D2       -3.08159   0.00321   0.00000   0.07631   0.07586  -3.00573
    D3        1.14929   0.00552   0.00000   0.10094   0.10056   1.24985
    D4        1.14914  -0.00200   0.00000  -0.00587  -0.00522   1.14393
    D5       -0.96914   0.00152   0.00000   0.05194   0.05173  -0.91741
    D6       -3.02145   0.00382   0.00000   0.07657   0.07643  -2.94502
    D7       -3.08143  -0.00356   0.00000  -0.02929  -0.02885  -3.11028
    D8        1.08347  -0.00004   0.00000   0.02852   0.02810   1.11156
    D9       -0.96884   0.00226   0.00000   0.05315   0.05279  -0.91604
   D10        0.96137   0.00059   0.00000  -0.00970  -0.00952   0.95185
   D11       -1.15128  -0.00033   0.00000  -0.02035  -0.02036  -1.17163
   D12        3.07920   0.00056   0.00000  -0.00191  -0.00191   3.07729
   D13       -1.15104   0.00018   0.00000   0.00298   0.00309  -1.14795
   D14        3.01950  -0.00074   0.00000  -0.00767  -0.00775   3.01175
   D15        0.96679   0.00015   0.00000   0.01077   0.01069   0.97749
   D16        3.07952   0.00189   0.00000   0.02786   0.02837   3.10789
   D17        0.96688   0.00096   0.00000   0.01722   0.01753   0.98441
   D18       -1.08583   0.00186   0.00000   0.03565   0.03598  -1.04985
   D19        0.96442   0.00032   0.00000  -0.01874  -0.01916   0.94526
   D20        3.08217   0.00357   0.00000   0.02940   0.02896   3.11113
   D21       -1.14768   0.00199   0.00000   0.00570   0.00504  -1.14264
   D22        3.08266  -0.00320   0.00000  -0.07654  -0.07610   3.00656
   D23       -1.08277   0.00006   0.00000  -0.02841  -0.02798  -1.11075
   D24        0.97056  -0.00152   0.00000  -0.05211  -0.05190   0.91866
   D25       -1.14823  -0.00548   0.00000  -0.10098  -0.10060  -1.24884
   D26        0.96952  -0.00223   0.00000  -0.05284  -0.05249   0.91703
   D27        3.02285  -0.00380   0.00000  -0.07654  -0.07641   2.94645
   D28        1.03144   0.00118   0.00000  -0.01153  -0.01306   1.01838
   D29        3.12584   0.00054   0.00000  -0.02023  -0.02196   3.10388
   D30       -1.06295   0.00087   0.00000  -0.01576  -0.01738  -1.08034
   D31       -3.11841  -0.00056   0.00000   0.01977   0.02149  -3.09691
   D32       -1.02401  -0.00120   0.00000   0.01107   0.01259  -1.01142
   D33        1.07038  -0.00087   0.00000   0.01554   0.01717   1.08755
   D34       -1.04347   0.00032   0.00000   0.00421   0.00431  -1.03916
   D35        1.05093  -0.00032   0.00000  -0.00449  -0.00460   1.04633
   D36       -3.13786   0.00001   0.00000  -0.00002  -0.00002  -3.13788
   D37       -0.96406  -0.00055   0.00000   0.01066   0.01049  -0.95357
   D38        1.14832   0.00036   0.00000   0.02113   0.02115   1.16946
   D39       -3.08180  -0.00055   0.00000   0.00258   0.00258  -3.07922
   D40       -3.08185  -0.00186   0.00000  -0.02726  -0.02778  -3.10963
   D41       -0.96948  -0.00096   0.00000  -0.01680  -0.01712  -0.98659
   D42        1.08359  -0.00187   0.00000  -0.03535  -0.03568   1.04791
   D43        1.14814  -0.00014   0.00000  -0.00207  -0.00218   1.14596
   D44       -3.02267   0.00077   0.00000   0.00840   0.00848  -3.01419
   D45       -0.96960  -0.00014   0.00000  -0.01016  -0.01009  -0.97969
   D46        0.96409  -0.00161   0.00000  -0.02393  -0.02413   0.93996
   D47        3.08253   0.00126   0.00000   0.01354   0.01363   3.09616
   D48       -1.14854  -0.00032   0.00000  -0.00531  -0.00529  -1.15383
   D49       -1.14816  -0.00256   0.00000  -0.03903  -0.03925  -1.18742
   D50        0.97028   0.00032   0.00000  -0.00155  -0.00149   0.96878
   D51        3.02240  -0.00126   0.00000  -0.02040  -0.02041   3.00198
   D52        3.08195  -0.00121   0.00000  -0.01597  -0.01620   3.06575
   D53       -1.08279   0.00167   0.00000   0.02150   0.02156  -1.06123
   D54        0.96933   0.00009   0.00000   0.00266   0.00264   0.97197
   D55       -0.96260   0.00158   0.00000   0.02327   0.02347  -0.93913
   D56        1.14995   0.00255   0.00000   0.03867   0.03890   1.18885
   D57       -3.08039   0.00120   0.00000   0.01554   0.01577  -3.06462
   D58       -3.08097  -0.00130   0.00000  -0.01425  -0.01434  -3.09531
   D59       -0.96842  -0.00032   0.00000   0.00115   0.00109  -0.96733
   D60        1.08442  -0.00168   0.00000  -0.02198  -0.02204   1.06238
   D61        1.14999   0.00029   0.00000   0.00467   0.00465   1.15464
   D62       -3.02065   0.00126   0.00000   0.02006   0.02008  -3.00057
   D63       -0.96781  -0.00009   0.00000  -0.00306  -0.00305  -0.97086
         Item               Value     Threshold  Converged?
 Maximum Force            0.020984     0.000450     NO 
 RMS     Force            0.005746     0.000300     NO 
 Maximum Displacement     0.368220     0.001800     NO 
 RMS     Displacement     0.078476     0.001200     NO 
 Predicted change in Energy=-9.097894D-03
 GradGradGradGradGradGradGradGradGradGradGradGradGradGradGradGradGradGrad

                          Input orientation:                          
 ---------------------------------------------------------------------
 Center     Atomic      Atomic             Coordinates (Angstroms)
 Number     Number       Type             X           Y           Z
 ---------------------------------------------------------------------
      1          6           0        0.000102    0.032751   -0.007484
      2          6           0       -0.023038    0.041564    1.530927
      3          6           0        1.418222    0.033221    2.069596
      4          6           0        2.277713    1.167145    1.499054
      5          6           0        2.266352    1.148408   -0.031909
      6          6           0        0.845057    1.165718   -0.601105
      7          1           0        1.403559    0.071125    3.171185
      8          1           0       -0.528633   -0.875921    1.876270
      9          1           0        0.430691   -0.924136   -0.352768
     10          1           0       -1.031265    0.071201   -0.394799
     11          1           0        1.909038    2.140046    1.860595
     12          1           0        3.311542    1.075510    1.867143
     13          1           0        2.848855    1.994593   -0.429824
     14          1           0        2.771246    0.227938   -0.375671
     15          1           0        0.373828    2.139083   -0.391937
     16          1           0        0.879783    1.071908   -1.697779
     17          1           0        1.897284   -0.923060    1.793487
     18          6           0       -0.857617    1.212540    2.100194
     19          1           0       -1.890084    1.157973    1.728854
     20          1           0       -0.882050    1.162715    3.197374
     21          1           0       -0.446171    2.184921    1.814536
 ---------------------------------------------------------------------
                    Distance matrix (angstroms):
                    1          2          3          4          5
     1  C    0.000000
     2  C    1.538609   0.000000
     3  C    2.515019   1.538656   0.000000
     4  C    2.957029   2.561524   1.532980   0.000000
     5  C    2.526099   2.984772   2.525725   1.531119   0.000000
     6  C    1.532955   2.561810   2.956976   2.542277   1.531131
     7  H    3.474924   2.174052   1.102339   2.182070   3.487802
     8  H    2.157261   1.103027   2.157349   3.491703   3.943475
     9  H    1.104654   2.164891   2.785605   3.348760   2.787121
    10  H    1.102365   2.173895   3.474862   3.967002   3.488028
    11  H    3.402124   2.871450   2.173314   1.101440   2.166238
    12  H    3.945530   3.507351   2.170718   1.101221   2.168901
    13  H    3.484622   3.988312   3.484364   2.175188   1.101669
    14  H    2.802303   3.387901   2.801414   2.154131   1.104698
    15  H    2.173502   2.873063   3.403609   2.853995   2.166264
    16  H    2.170434   3.507312   3.944857   3.490419   2.168767
    17  H    2.785026   2.164965   1.104631   2.144849   2.785545
    18  C    2.563179   1.546535   2.563429   3.192761   3.782744
    19  H    2.802462   2.184355   3.510849   4.174138   4.514015
    20  H    3.510857   2.184474   2.799802   3.587257   4.510089
    21  H    2.854952   2.203055   2.858466   2.924883   3.441147
                    6          7          8          9         10
     6  C    0.000000
     7  H    3.967396   0.000000
     8  H    3.491805   2.511387   0.000000
     9  H    2.144963   3.788834   2.427187   0.000000
    10  H    2.181998   4.317941   2.511461   1.769118   0.000000
    11  H    2.853302   2.500718   3.877956   4.058781   4.244090
    12  H    3.490549   2.519864   4.307564   4.150409   4.998498
    13  H    2.175219   4.330806   4.996533   3.791100   4.330819
    14  H    2.154172   3.804649   4.144749   2.608831   3.805788
    15  H    1.101474   4.246485   3.879362   3.063997   2.500086
    16  H    1.101227   4.998272   4.307145   2.448455   2.520173
    17  H    3.347274   1.769243   2.427786   2.599482   3.788608
    18  C    3.193479   2.750048   2.126039   3.498877   2.749145
    19  H    3.593016   3.756281   2.451939   3.748909   2.535458
    20  H    4.172690   2.533034   2.454843   4.322238   3.757309
    21  H    2.922561   3.119315   3.062575   3.890029   3.113087
                   11         12         13         14         15
    11  H    0.000000
    12  H    1.760766   0.000000
    13  H    2.480006   2.516913   0.000000
    14  H    3.066015   2.457746   1.769188   0.000000
    15  H    2.725944   3.855488   2.479530   3.066000   0.000000
    16  H    3.855167   4.315337   2.517202   2.457211   1.760704
    17  H    3.063864   2.449456   3.789630   2.606502   4.058782
    18  C    2.927807   4.177915   4.555275   4.501999   2.930129
    19  H    3.926214   5.204118   5.274218   5.198268   3.253557
    20  H    3.245354   4.400378   5.269557   5.194904   3.926025
    21  H    2.356086   3.918413   3.991312   4.356439   2.354363
                   16         17         18         19         20
    16  H    0.000000
    17  H    4.147788   0.000000
    18  C    4.178868   3.499190   0.000000
    19  H    4.406970   4.321925   1.098572   0.000000
    20  H    5.203347   3.747806   1.098582   1.781209   0.000000
    21  H    3.915777   3.892527   1.093807   1.773937   1.774016
                   21
    21  H    0.000000
 Stoichiometry    C7H14
 Framework group  C1[X(C7H14)]
 Deg. of freedom    57
 Full point group                 C1      NOp   1
 Largest Abelian subgroup         C1      NOp   1
 Largest concise Abelian subgroup C1      NOp   1
                         Standard orientation:                         
 ---------------------------------------------------------------------
 Center     Atomic      Atomic             Coordinates (Angstroms)
 Number     Number       Type             X           Y           Z
 ---------------------------------------------------------------------
      1          6           0       -0.249435   -1.257683    0.639401
      2          6           0       -1.124310   -0.000108    0.496505
      3          6           0       -0.249291    1.257336    0.640173
      4          6           0        0.942664    1.271216   -0.323714
      5          6           0        1.783716    0.000336   -0.175988
      6          6           0        0.943371   -1.271061   -0.323400
      7          1           0       -0.869391    2.158922    0.506865
      8          1           0       -1.868977   -0.000362    1.310224
      9          1           0        0.148971   -1.300568    1.668816
     10          1           0       -0.869633   -2.159018    0.504648
     11          1           0        0.588172    1.362441   -1.362551
     12          1           0        1.567499    2.158033   -0.134444
     13          1           0        2.609619    0.000495   -0.905070
     14          1           0        2.247467    0.000616    0.826655
     15          1           0        0.590151   -1.363502   -1.362600
     16          1           0        1.568608   -2.157303   -0.132730
     17          1           0        0.150225    1.298913    1.669186
     18          6           0       -1.944756    0.000115   -0.814464
     19          1           0       -2.588898   -0.888691   -0.858782
     20          1           0       -2.583712    0.892508   -0.861915
     21          1           0       -1.301855   -0.003387   -1.699381
 ---------------------------------------------------------------------
 Rotational constants (GHZ):           3.4753267           2.5189630           1.9162921
 Standard basis: def2SVP (5D, 7F)
 There are   175 symmetry adapted cartesian basis functions of A   symmetry.
 There are   168 symmetry adapted basis functions of A   symmetry.
   168 basis functions,   273 primitive gaussians,   175 cartesian basis functions
    28 alpha electrons       28 beta electrons
       nuclear repulsion energy       331.8698612854 Hartrees.
 NAtoms=   21 NActive=   21 NUniq=   21 SFac= 1.00D+00 NAtFMM=   60 NAOKFM=F Big=F
 Integral buffers will be    131072 words long.
 Raffenetti 2 integral format.
 Two-electron integral symmetry is turned on.
 One-electron integrals computed using PRISM.
   1 Symmetry operations used in ECPInt.
 ECPInt:  NShTT=    3570 NPrTT=   12068 LenC2=    3565 LenP2D=   10266.
 LDataN:  DoStor=T MaxTD1= 4 Len=   56
 NBasis=   168 RedAO= T EigKep=  1.46D-03  NBF=   168
 NBsUse=   168 1.00D-06 EigRej= -1.00D+00 NBFU=   168
 Initial guess from the checkpoint file:  "axMeCyhex.chk"
 B after Tr=     0.000000    0.000000   -0.000000
         Rot=    0.999934    0.000072   -0.011476    0.000323 Ang=   1.32 deg.
 ExpMin= 1.22D-01 ExpMax= 1.24D+03 ExpMxC= 1.86D+02 IAcc=3 IRadAn=         5 AccDes= 0.00D+00
 Harris functional with IExCor= 1009 and IRadAn=       5 diagonalized for initial guess.
 HarFok:  IExCor= 1009 AccDes= 0.00D+00 IRadAn=         5 IDoV= 1 UseB2=F ITyADJ=14
 ICtDFT=  3500011 ScaDFX=  1.000000  1.000000  1.000000  1.000000
 FoFCou: FMM=F IPFlag=           0 FMFlag=      100000 FMFlg1=           0
         NFxFlg=           0 DoJE=T BraDBF=F KetDBF=T FulRan=T
         wScrn=  0.000000 ICntrl=       500 IOpCl=  0 I1Cent=   200000004 NGrid=           0
         NMat0=    1 NMatS0=      1 NMatT0=    0 NMatD0=    1 NMtDS0=    0 NMtDT0=    0
 Petite list used in FoFCou.
 Requested convergence on RMS density matrix=1.00D-08 within 128 cycles.
 Requested convergence on MAX density matrix=1.00D-06.
 Requested convergence on             energy=1.00D-06.
 No special actions if energy rises.
 Integral accuracy reduced to 1.0D-05 until final iterations.
 Initial convergence to 1.0D-05 achieved.  Increase integral accuracy.
 SCF Done:  E(RM062X) =  -274.838216630     A.U. after   11 cycles
            NFock= 11  Conv=0.69D-08     -V/T= 2.0130
   1 Symmetry operations used in ECPInt.
 ECPInt:  NShTT=    3570 NPrTT=   12068 LenC2=    3565 LenP2D=   10266.
 LDataN:  DoStor=T MaxTD1= 5 Len=  102
 Calling FoFJK, ICntrl=      2127 FMM=F ISym2X=0 I1Cent= 0 IOpClX= 0 NMat=1 NMatS=1 NMatT=0.
 ***** Axes restored to original set *****
 -------------------------------------------------------------------
 Center     Atomic                   Forces (Hartrees/Bohr)
 Number     Number              X              Y              Z
 -------------------------------------------------------------------
      1        6          -0.000211940   -0.000376881   -0.000204312
      2        6          -0.003114712    0.005984593    0.002151277
      3        6           0.000109895   -0.000300323    0.000223634
      4        6          -0.001841204   -0.000742684   -0.000650113
      5        6           0.000513229   -0.000049626   -0.000337898
      6        6          -0.000055611   -0.000695665    0.001909509
      7        1           0.000593152    0.000319747   -0.000417031
      8        1           0.002187737   -0.001258671   -0.001478129
      9        1          -0.000782956   -0.000248642    0.001160098
     10        1           0.000617350    0.000326219   -0.000410273
     11        1          -0.000945192    0.001028837   -0.000006150
     12        1          -0.000555040   -0.000022891    0.000213290
     13        1          -0.000179832   -0.000710519    0.000111015
     14        1           0.000081463    0.000177756   -0.000051845
     15        1          -0.000332052    0.000999138    0.000897142
     16        1          -0.000406835   -0.000004093    0.000436421
     17        1          -0.001367563   -0.000274528    0.000326506
     18        6           0.005730942   -0.009035871   -0.003892658
     19        1          -0.000842798    0.000523711   -0.000017449
     20        1          -0.000302938    0.000519794    0.000790139
     21        1           0.001104904    0.003840600   -0.000753173
 -------------------------------------------------------------------
 Cartesian Forces:  Max     0.009035871 RMS     0.001896672

 GradGradGradGradGradGradGradGradGradGradGradGradGradGradGradGradGradGrad
 Berny optimization.
 Using GEDIIS/GDIIS optimizer.
 FormGI is forming the generalized inverse of G from B-inverse, IUseBI=4.
 Internal  Forces:  Max     0.007623930 RMS     0.001104319
 Search for a local minimum.
 Step number   2 out of a maximum of  126
 All quantities printed in internal units (Hartrees-Bohrs-Radians)
 Mixed Optimization -- RFO/linear search
 Update second derivatives using D2CorX and points    1    2
 DE= -7.25D-03 DEPred=-9.10D-03 R= 7.97D-01
 TightC=F SS=  1.41D+00  RLast= 3.51D-01 DXNew= 5.0454D-01 1.0543D+00
 Trust test= 7.97D-01 RLast= 3.51D-01 DXMaxT set to 5.05D-01
 ITU=  1  0
 Use linear search instead of GDIIS.
     Eigenvalues ---    0.00237   0.00742   0.00749   0.00853   0.02060
     Eigenvalues ---    0.02219   0.03867   0.04003   0.04310   0.04456
     Eigenvalues ---    0.04644   0.04712   0.04946   0.05003   0.05382
     Eigenvalues ---    0.05571   0.05621   0.05655   0.06182   0.06660
     Eigenvalues ---    0.08024   0.08197   0.08203   0.08366   0.08485
     Eigenvalues ---    0.08517   0.08876   0.12163   0.12252   0.14319
     Eigenvalues ---    0.15471   0.15835   0.16000   0.16018   0.17473
     Eigenvalues ---    0.21668   0.27324   0.28902   0.29267   0.29311
     Eigenvalues ---    0.30680   0.30835   0.30842   0.31301   0.31382
     Eigenvalues ---    0.31386   0.31389   0.31411   0.31464   0.31465
     Eigenvalues ---    0.31468   0.31471   0.31475   0.33439   0.35820
     Eigenvalues ---    0.37230   0.37603
 RFO step:  Lambda=-6.71098601D-04 EMin= 2.36824036D-03
 Quartic linear search produced a step of -0.06594.
 Iteration  1 RMS(Cart)=  0.01527922 RMS(Int)=  0.00008680
 Iteration  2 RMS(Cart)=  0.00009743 RMS(Int)=  0.00003097
 Iteration  3 RMS(Cart)=  0.00000000 RMS(Int)=  0.00003097
 Variable       Old X    -DE/DX   Delta X   Delta X   Delta X     New X
                                 (Linear)    (Quad)   (Total)
    R1        2.90755  -0.00261  -0.00293  -0.00228  -0.00523   2.90232
    R2        2.89686  -0.00152  -0.00224  -0.00073  -0.00297   2.89390
    R3        2.08749  -0.00045   0.00213  -0.00505  -0.00291   2.08458
    R4        2.08317  -0.00042   0.00231  -0.00526  -0.00294   2.08022
    R5        2.90764  -0.00266  -0.00293  -0.00242  -0.00537   2.90227
    R6        2.08442  -0.00042   0.00224  -0.00513  -0.00289   2.08153
    R7        2.92253  -0.00762  -0.00081  -0.02350  -0.02431   2.89822
    R8        2.89691  -0.00155  -0.00219  -0.00088  -0.00306   2.89385
    R9        2.08312  -0.00041   0.00231  -0.00522  -0.00292   2.08020
   R10        2.08745  -0.00044   0.00212  -0.00499  -0.00286   2.08459
   R11        2.89340  -0.00093  -0.00199   0.00012  -0.00185   2.89155
   R12        2.08142   0.00122   0.00253  -0.00077   0.00176   2.08318
   R13        2.08101  -0.00045   0.00245  -0.00558  -0.00312   2.07788
   R14        2.89342  -0.00093  -0.00200   0.00012  -0.00186   2.89156
   R15        2.08185  -0.00068   0.00240  -0.00619  -0.00379   2.07806
   R16        2.08758  -0.00009   0.00213  -0.00396  -0.00183   2.08575
   R17        2.08149   0.00119   0.00253  -0.00084   0.00168   2.08317
   R18        2.08102  -0.00045   0.00246  -0.00559  -0.00313   2.07789
   R19        2.07600   0.00077  -0.00356   0.00810   0.00454   2.08054
   R20        2.07602   0.00077  -0.00356   0.00811   0.00455   2.08056
   R21        2.06700   0.00403  -0.00297   0.01524   0.01228   2.07927
    A1        1.97278  -0.00174  -0.00198  -0.00701  -0.00908   1.96370
    A2        1.90007  -0.00037   0.00062  -0.00425  -0.00359   1.89648
    A3        1.91456   0.00106  -0.00014   0.00413   0.00406   1.91862
    A4        1.88002   0.00172   0.00195   0.01100   0.01295   1.89297
    A5        1.93249  -0.00028  -0.00132  -0.00265  -0.00390   1.92859
    A6        1.85989  -0.00031   0.00106  -0.00083   0.00021   1.86010
    A7        1.91339   0.00236   0.00200   0.00156   0.00362   1.91700
    A8        1.89144  -0.00092   0.00137  -0.00892  -0.00750   1.88394
    A9        1.96113  -0.00141  -0.00342  -0.00319  -0.00658   1.95455
   A10        1.89150  -0.00092   0.00137  -0.00897  -0.00756   1.88395
   A11        1.96138  -0.00142  -0.00344  -0.00324  -0.00665   1.95473
   A12        1.84128   0.00227   0.00229   0.02278   0.02501   1.86628
   A13        1.97237  -0.00173  -0.00203  -0.00678  -0.00890   1.96347
   A14        1.91474   0.00105  -0.00013   0.00403   0.00396   1.91870
   A15        1.90014  -0.00038   0.00064  -0.00439  -0.00371   1.89643
   A16        1.93259  -0.00027  -0.00132  -0.00259  -0.00384   1.92875
   A17        1.87986   0.00173   0.00197   0.01107   0.01304   1.89290
   A18        1.86014  -0.00032   0.00107  -0.00098   0.00007   1.86021
   A19        1.93792   0.00101   0.00027  -0.00056  -0.00035   1.93756
   A20        1.92147  -0.00016  -0.00078   0.00046  -0.00031   1.92116
   A21        1.91814  -0.00065  -0.00036  -0.00118  -0.00153   1.91661
   A22        1.91403  -0.00051  -0.00028  -0.00254  -0.00281   1.91123
   A23        1.91789  -0.00003  -0.00036   0.00406   0.00373   1.92162
   A24        1.85253   0.00031   0.00156  -0.00021   0.00135   1.85388
   A25        1.95893  -0.00146  -0.00099  -0.00998  -0.01099   1.94794
   A26        1.92606   0.00033  -0.00092   0.00243   0.00153   1.92759
   A27        1.89437   0.00062   0.00098   0.00383   0.00482   1.89919
   A28        1.92608   0.00032  -0.00091   0.00231   0.00143   1.92751
   A29        1.89441   0.00062   0.00098   0.00384   0.00483   1.89924
   A30        1.86079  -0.00036   0.00100  -0.00194  -0.00097   1.85982
   A31        1.93836   0.00099   0.00027  -0.00076  -0.00055   1.93781
   A32        1.92172  -0.00017  -0.00080   0.00037  -0.00042   1.92130
   A33        1.91778  -0.00064  -0.00036  -0.00102  -0.00136   1.91642
   A34        1.91402  -0.00050  -0.00028  -0.00253  -0.00280   1.91122
   A35        1.91769  -0.00003  -0.00035   0.00414   0.00382   1.92151
   A36        1.85239   0.00031   0.00156  -0.00016   0.00140   1.85378
   A37        1.92318   0.00065  -0.00083   0.00534   0.00451   1.92770
   A38        1.92334   0.00065  -0.00084   0.00536   0.00452   1.92786
   A39        1.95410   0.00050  -0.00287   0.00751   0.00466   1.95876
   A40        1.89066  -0.00059   0.00132  -0.00508  -0.00377   1.88689
   A41        1.88536  -0.00064   0.00167  -0.00696  -0.00528   1.88009
   A42        1.88547  -0.00065   0.00166  -0.00701  -0.00533   1.88014
    D1       -0.94439  -0.00033  -0.00125  -0.00726  -0.00853  -0.95292
    D2       -3.00573  -0.00003  -0.00500   0.00784   0.00286  -3.00287
    D3        1.24985  -0.00143  -0.00663  -0.01265  -0.01927   1.23058
    D4        1.14393   0.00048   0.00034  -0.00078  -0.00045   1.14347
    D5       -0.91741   0.00078  -0.00341   0.01433   0.01093  -0.90648
    D6       -2.94502  -0.00062  -0.00504  -0.00617  -0.01120  -2.95621
    D7       -3.11028   0.00048   0.00190  -0.00189   0.00001  -3.11028
    D8        1.11156   0.00079  -0.00185   0.01322   0.01139   1.12296
    D9       -0.91604  -0.00061  -0.00348  -0.00728  -0.01073  -0.92678
   D10        0.95185  -0.00004   0.00063   0.01182   0.01242   0.96427
   D11       -1.17163   0.00005   0.00134   0.01527   0.01660  -1.15504
   D12        3.07729   0.00015   0.00013   0.01585   0.01595   3.09324
   D13       -1.14795   0.00033  -0.00020   0.01400   0.01381  -1.13414
   D14        3.01175   0.00041   0.00051   0.01745   0.01799   3.02973
   D15        0.97749   0.00052  -0.00070   0.01803   0.01734   0.99483
   D16        3.10789  -0.00014  -0.00187   0.01007   0.00818   3.11608
   D17        0.98441  -0.00006  -0.00116   0.01352   0.01236   0.99677
   D18       -1.04985   0.00005  -0.00237   0.01410   0.01171  -1.03814
   D19        0.94526   0.00033   0.00126   0.00691   0.00819   0.95345
   D20        3.11113  -0.00048  -0.00191   0.00169  -0.00021   3.11092
   D21       -1.14264  -0.00049  -0.00033   0.00028  -0.00004  -1.14267
   D22        3.00656   0.00002   0.00502  -0.00816  -0.00316   3.00340
   D23       -1.11075  -0.00078   0.00185  -0.01338  -0.01156  -1.12232
   D24        0.91866  -0.00079   0.00342  -0.01480  -0.01139   0.90727
   D25       -1.24884   0.00142   0.00663   0.01227   0.01890  -1.22994
   D26        0.91703   0.00061   0.00346   0.00706   0.01050   0.92753
   D27        2.94645   0.00060   0.00504   0.00564   0.01067   2.95712
   D28        1.01838  -0.00052   0.00086  -0.00079   0.00015   1.01853
   D29        3.10388  -0.00043   0.00145  -0.00033   0.00121   3.10509
   D30       -1.08034  -0.00048   0.00115  -0.00058   0.00065  -1.07969
   D31       -3.09691   0.00042  -0.00142  -0.00371  -0.00522  -3.10213
   D32       -1.01142   0.00051  -0.00083  -0.00325  -0.00416  -1.01558
   D33        1.08755   0.00046  -0.00113  -0.00350  -0.00472   1.08283
   D34       -1.03916  -0.00006  -0.00028  -0.00229  -0.00258  -1.04174
   D35        1.04633   0.00004   0.00030  -0.00183  -0.00152   1.04481
   D36       -3.13788  -0.00001   0.00000  -0.00208  -0.00208  -3.13996
   D37       -0.95357   0.00004  -0.00069  -0.01110  -0.01177  -0.96534
   D38        1.16946  -0.00004  -0.00139  -0.01436  -0.01575   1.15371
   D39       -3.07922  -0.00014  -0.00017  -0.01504  -0.01520  -3.09441
   D40       -3.10963   0.00014   0.00183  -0.00943  -0.00758  -3.11720
   D41       -0.98659   0.00006   0.00113  -0.01269  -0.01156  -0.99815
   D42        1.04791  -0.00004   0.00235  -0.01337  -0.01101   1.03690
   D43        1.14596  -0.00033   0.00014  -0.01326  -0.01313   1.13283
   D44       -3.01419  -0.00041  -0.00056  -0.01653  -0.01711  -3.03130
   D45       -0.97969  -0.00051   0.00066  -0.01721  -0.01656  -0.99625
   D46        0.93996   0.00047   0.00159   0.01505   0.01663   0.95659
   D47        3.09616   0.00009  -0.00090   0.01269   0.01178   3.10794
   D48       -1.15383   0.00020   0.00035   0.01394   0.01429  -1.13954
   D49       -1.18742   0.00036   0.00259   0.01656   0.01915  -1.16827
   D50        0.96878  -0.00003   0.00010   0.01420   0.01429   0.98307
   D51        3.00198   0.00009   0.00135   0.01544   0.01680   3.01878
   D52        3.06575   0.00030   0.00107   0.01594   0.01700   3.08275
   D53       -1.06123  -0.00009  -0.00142   0.01357   0.01214  -1.04909
   D54        0.97197   0.00003  -0.00017   0.01482   0.01465   0.98662
   D55       -0.93913  -0.00047  -0.00155  -0.01541  -0.01695  -0.95608
   D56        1.18885  -0.00037  -0.00256  -0.01716  -0.01972   1.16913
   D57       -3.06462  -0.00030  -0.00104  -0.01643  -0.01746  -3.08208
   D58       -3.09531  -0.00009   0.00095  -0.01311  -0.01216  -3.10747
   D59       -0.96733   0.00002  -0.00007  -0.01486  -0.01493  -0.98226
   D60        1.06238   0.00008   0.00145  -0.01413  -0.01266   1.04972
   D61        1.15464  -0.00020  -0.00031  -0.01431  -0.01461   1.14002
   D62       -3.00057  -0.00010  -0.00132  -0.01605  -0.01739  -3.01796
   D63       -0.97086  -0.00003   0.00020  -0.01532  -0.01512  -0.98598
         Item               Value     Threshold  Converged?
 Maximum Force            0.007624     0.000450     NO 
 RMS     Force            0.001104     0.000300     NO 
 Maximum Displacement     0.064156     0.001800     NO 
 RMS     Displacement     0.015315     0.001200     NO 
 Predicted change in Energy=-3.681914D-04
 GradGradGradGradGradGradGradGradGradGradGradGradGradGradGradGradGradGrad

                          Input orientation:                          
 ---------------------------------------------------------------------
 Center     Atomic      Atomic             Coordinates (Angstroms)
 Number     Number       Type             X           Y           Z
 ---------------------------------------------------------------------
      1          6           0        0.000055    0.026366   -0.006507
      2          6           0       -0.020246    0.037067    1.529162
      3          6           0        1.417366    0.027226    2.069442
      4          6           0        2.264809    1.169094    1.501077
      5          6           0        2.261572    1.145825   -0.028885
      6          6           0        0.838099    1.167687   -0.589775
      7          1           0        1.405155    0.066605    3.169466
      8          1           0       -0.516552   -0.885922    1.868383
      9          1           0        0.428844   -0.931213   -0.347153
     10          1           0       -1.028926    0.065797   -0.395636
     11          1           0        1.879040    2.139127    1.855257
[...]
 6538,0.00997364,-0.01263221,0.04923408,-0.08633308,0.00463799,-0.07817
 232,-0.03118150,0.00115180,-0.01128507,0.00215696,-0.00014483,-0.00679
 577,0.00038778,0.00035131,-0.00010714,0.00141296,0.00251058,-0.0008609
 1,0.01301002,-0.00187798,0.00446305,-0.00201003,-0.00012711,-0.0007879
 0,0.00024852,0.00040923,0.00082950,0.00932787,0.00003249,0.00299954,0.
 09316493,-0.00684356,0.08662083,-0.00016634,-0.00014367,0.00002029,0.0
 0086187,0.00024899,-0.00064001,0.00749412,-0.01664859,-0.00607094,-0.0
 8320271,0.08537553,0.02873279,-0.00086262,-0.00001801,0.00028455,0.000
 61508,-0.00095921,-0.00023061,0.00065815,0.00080784,-0.00017896,0.0001
 6373,0.00027922,0.00017216,-0.00003331,0.00011231,0.00008506,-0.000007
 09,0.00003238,-0.00003472,0.08734527,-0.00022929,0.00005305,0.00003059
 ,0.00137317,0.00016179,-0.00017193,0.00889078,-0.02156930,-0.00686157,
 0.08411664,-0.24921823,-0.07075609,0.00011769,0.00031049,0.00034510,-0
 .00004177,0.00016906,0.00042413,0.00004638,0.00074355,0.00030180,-0.00
 008489,0.00022697,0.00008884,0.00009952,0.00009331,0.00017395,-0.00008
 168,-0.00000196,-0.00011506,-0.09119643,0.27034366,-0.00009481,0.00009
 078,-0.00017801,0.00004112,-0.00072542,0.00002478,-0.00574889,0.012463
 20,0.00368986,0.02795848,-0.07017912,-0.07079517,0.01289775,-0.0297695
 3,-0.01165426,0.00125081,-0.00059788,0.00187982,-0.00063015,-0.0002022
 5,0.00039552,-0.00016713,-0.00002495,-0.00006051,0.00009110,0.00019052
 ,-0.00002523,-0.00007782,-0.00004599,0.00005761,-0.03361991,0.07540038
 ,0.07885144,0.00034992,0.00024329,0.00042609,0.00008116,-0.00335491,0.
 00240207,-0.01523314,0.00239760,-0.00581435,-0.28373976,0.01900376,-0.
 08746827,0.00274667,-0.00002347,0.00168567,0.00129077,-0.00009043,0.00
 007693,0.00017934,0.00023419,0.00041624,-0.00109819,-0.00004165,-0.000
 47427,-0.00001063,-0.00004871,-0.00006209,-0.00000580,0.00007872,-0.00
 004875,-0.00997621,0.00066247,-0.00340632,0.30345345,0.00023604,-0.000
 01386,0.00035258,-0.00140755,-0.00420441,0.00281326,-0.02502395,0.0014
 2343,-0.00948420,0.02086736,-0.04798726,0.00707193,-0.00105173,-0.0010
 4489,-0.00106951,-0.00001267,0.00054510,0.00024779,0.00067569,0.000821
 16,0.00004487,-0.00139002,-0.00007683,-0.00043128,0.00001560,-0.000003
 55,-0.00003566,0.00003500,0.00005404,-0.00007320,0.02538246,-0.0017209
 7,0.00991525,-0.01832526,0.05036988,0.00045866,0.00034628,-0.00013789,
 0.00123355,0.00225250,-0.00091356,0.01324528,-0.00167445,0.00442961,-0
 .08639565,0.00636420,-0.07781390,-0.03204431,0.00269284,-0.01047301,0.
 00231102,-0.00043530,-0.00694347,-0.00001045,-0.00063937,0.00033206,0.
 00071608,0.00017852,0.00036211,-0.00003003,-0.00008294,0.00004709,-0.0
 0006897,-0.00008217,0.00017472,0.00943381,-0.00029680,0.00297529,0.093
 23115,-0.00870654,0.08604497,-0.00530503,0.00219833,-0.00362884,0.0002
 3718,0.00016250,-0.00055593,0.00082611,0.00047834,-0.00040749,0.000199
 25,0.00163177,-0.00039151,-0.12177076,-0.10851176,0.05169053,-0.015195
 28,-0.02391954,0.01178335,0.00024595,-0.00011667,-0.00017514,0.0000894
 4,0.00001489,0.00011145,0.00018002,-0.00004979,-0.00013710,-0.00107008
 ,-0.00144454,0.00079790,-0.00004931,-0.00014627,0.00021800,0.00033619,
 0.00034621,0.00025646,0.13188175,0.00003553,0.00089985,-0.00022410,0.0
 0026443,0.00005697,-0.00018087,0.00022057,0.00089834,0.00004191,0.0024
 7223,0.00203442,-0.00223780,-0.11022374,-0.20764506,0.07534025,0.00296
 952,0.00201202,-0.00147825,-0.00029671,0.00014381,-0.00000011,0.000006
 06,-0.00006110,-0.00000395,0.00023108,0.00046610,-0.00000503,-0.000109
 23,0.00014275,0.00027709,0.00014378,0.00066095,0.00039233,0.00010751,-
 0.00003924,0.00049460,0.11868012,0.21844402,-0.00280542,0.00034592,-0.
 00075214,-0.00055598,-0.00011129,-0.00019749,-0.00122937,-0.00218031,-
 0.00688205,0.01778870,0.02632241,-0.01075876,0.05169161,0.07417167,-0.
 08147670,-0.00641391,-0.01110970,0.00465757,0.00131199,0.00150549,-0.0
 0082771,0.00011146,-0.00000997,0.00017665,0.00015849,0.00031424,-0.000
 10373,-0.00068989,-0.00043985,0.00048928,0.00025368,-0.00044837,0.0011
 6859,-0.00053418,0.00012597,0.00100983,-0.05436621,-0.08111577,0.08950
 655,0.00160888,0.00165352,0.00047142,-0.00017598,-0.00018936,-0.000050
 79,-0.00016205,0.00061816,-0.00011386,0.00014385,-0.00090239,-0.000651
 15,-0.09713538,0.09465684,0.03531399,-0.01517085,0.02674549,0.00877918
 ,0.00006159,-0.00018491,-0.00005754,-0.00002561,-0.00004997,0.00009637
 ,-0.00018210,-0.00110515,-0.00005219,0.00043947,-0.00027279,-0.0003565
 9,0.00100265,0.00002938,-0.00038499,0.00039094,-0.00051505,0.00018093,
 0.00755853,-0.01379358,-0.00568157,0.10599017,-0.00084460,0.00087107,0
 .00017584,0.00015029,0.00011529,-0.00010280,-0.00047228,0.00087051,0.0
 0072343,-0.00026346,-0.00133406,-0.00034966,0.09597532,-0.23379502,-0.
 06540051,0.00021624,-0.00130878,0.00038164,-0.00005441,0.00021139,-0.0
 0005256,0.00005267,-0.00000180,-0.00003588,0.00036380,0.00038669,-0.00
 035052,0.00002936,0.00021136,0.00006934,-0.00045607,0.00130490,-0.0001
 5721,-0.00020595,0.00025116,-0.00044344,0.01065209,-0.01904908,-0.0072
 6027,-0.10591688,0.24939944,0.00057972,-0.00001765,-0.00002178,-0.0000
 5097,0.00012904,-0.00021579,-0.00022003,-0.00153317,0.00174971,0.01478
 624,-0.02907203,-0.01196788,0.03531319,-0.06450040,-0.06938455,-0.0066
 4232,0.01143092,0.00332204,-0.00050454,0.00022040,0.00027730,0.0000963
 1,0.00003418,0.00004975,0.00026697,-0.00018895,0.00006865,0.00009016,0
 .00009170,-0.00010061,0.00016434,0.00023068,-0.00673130,-0.00040291,0.
 00007888,0.00119794,-0.00569646,0.00942697,0.00310593,-0.03518404,0.07
 218264,0.07832732,0.00820878,-0.01765992,-0.00545299,0.00033815,0.0007
 6616,-0.00016332,-0.00015103,-0.00013705,-0.00008887,0.00136591,0.0002
 0932,0.00154440,-0.01470970,0.02771534,0.00746412,-0.09178135,0.096566
 39,0.02459219,0.00008712,0.00005464,-0.00004104,-0.00003246,0.00012460
 ,-0.00024396,-0.00145075,-0.00342184,0.00203497,0.00070485,0.00048202,
 -0.00061219,0.00026682,-0.00045727,-0.00076022,0.00013477,-0.00039937,
 0.00019462,0.00084696,-0.00031238,0.00056867,-0.00563002,-0.00002613,-
 0.00297939,0.10290508,0.00964017,-0.02156917,-0.00576299,0.00065966,0.
 00016149,-0.00121583,-0.00011212,0.00005318,0.00020212,-0.00040948,0.0
 0016977,-0.00011394,-0.00029122,0.00033470,-0.00022966,0.09664572,-0.2
 4920177,-0.05238974,0.00007745,-0.00000180,0.00011792,-0.00011373,0.00
 022680,0.00004653,-0.00322762,-0.00282739,0.00230210,-0.00026428,0.000
 74305,-0.00015379,0.00020807,-0.00006171,0.00057194,-0.00005911,0.0001
 9249,0.00014997,0.00036488,0.00066106,0.00029953,-0.00021004,0.0013051
 2,-0.00011421,-0.10355690,0.27032629,-0.00580720,0.01098177,0.00297507
 ,-0.00084507,0.00003223,0.00054856,0.00002628,0.00010053,-0.00019343,0
 .00006279,0.00111191,0.00112822,-0.00513166,0.01086003,0.00216846,0.02
 536703,-0.05377148,-0.06223366,0.00000210,-0.00001342,-0.00003677,0.00
 009566,-0.00025096,0.00013581,0.00120254,0.00220746,-0.00020788,-0.000
 16014,-0.00067910,0.00034958,-0.00001640,-0.00040211,-0.00003716,0.000
 14462,-0.00020172,0.00012938,0.00060414,-0.00027680,0.00027233,-0.0024
 3021,0.00047941,-0.00009880,-0.02752282,0.05727271,0.06330939,-0.00070
 175,0.00244727,0.01891300,-0.00201146,-0.00331816,0.00041618,-0.000373
 04,-0.00023392,0.00017616,-0.00666098,0.00036764,-0.00079963,0.0015813
 0,-0.00254220,-0.03249925,-0.04615807,0.00100255,0.00654924,0.00019059
 ,0.00010528,0.00000781,0.00008647,-0.00018035,0.00117871,0.00063413,0.
 00016586,-0.00065154,0.00017360,0.00068037,-0.00001272,0.00001507,-0.0
 0016117,0.00014768,-0.00006449,0.00007636,-0.00199805,0.00101486,-0.00
 042041,0.00052239,0.00116613,0.00033887,0.00048360,-0.00078859,0.00052
 926,0.01304246,0.05163645,-0.00028469,0.00144529,0.02676034,-0.0031303
 0,-0.00420570,0.00029079,-0.00024245,-0.00001469,-0.00034769,-0.000241
 89,0.00054529,-0.00007848,0.00061543,-0.00104558,0.00134410,0.00102143
 ,-0.04802160,-0.02223239,0.00008102,0.00005411,-0.00000600,-0.00010461
 ,-0.00007583,0.00145163,0.00074008,0.00076726,-0.00006655,0.00020434,0
 .00082104,-0.00064601,0.00004234,0.00019279,0.00044554,-0.00006894,0.0
 0035950,-0.00011098,0.00000915,-0.00004002,-0.00036771,-0.00026066,0.0
 0025189,0.00045136,0.00001317,-0.00174415,-0.02724694,0.00142893,0.050
 40616,-0.00012864,-0.00163251,-0.01012420,0.00158359,0.00230918,0.0011
 8038,0.00014359,-0.00035216,0.00058593,-0.00303340,0.00024141,0.001008
 04,0.00122948,-0.00096534,-0.00930735,0.00547528,-0.02023946,-0.315359
 95,0.00002807,-0.00004342,-0.00002175,-0.00001085,-0.00002686,-0.00082
 356,-0.00025402,0.00028303,0.00044433,0.00041403,0.00001463,0.00033772
 ,0.00009774,0.00000052,0.00024879,0.00010523,0.00010374,-0.00080488,-0
 .00026865,-0.00028014,0.00033190,-0.00009964,0.00035343,0.00042207,0.0
 0018792,-0.00051247,-0.00618911,-0.00528192,0.02047777,0.33782526,0.00
 105970,0.00045074,0.00125946,-0.01443312,0.02686593,0.00893076,-0.0928
 0898,0.09721936,0.02739761,0.00731874,-0.01802367,-0.00435746,0.000536
 57,0.00011613,-0.00081074,-0.00015328,-0.00004751,-0.00012320,-0.00065
 104,-0.00028048,0.00000632,0.00071217,-0.00010802,0.00065693,0.0002147
 0,-0.00042553,-0.00076081,0.00010231,-0.00044070,0.00018042,-0.0014673
 5,-0.00331719,0.00202831,0.00077655,0.00033118,-0.00059591,-0.00007319
 ,0.00008834,-0.00023625,-0.00003761,0.00045871,0.00000337,-0.00008592,
 -0.00012579,0.00006463,0.00007063,0.00003891,-0.00003037,0.10522505,-0
 .00039527,-0.00012229,-0.00026372,-0.00102869,0.00020370,-0.00042770,0
 .09785311,-0.24271739,-0.05698381,0.00964883,-0.02328261,-0.00635402,0
 .00093171,0.00095055,-0.00140381,-0.00010246,-0.00001576,0.00023501,0.
 00007616,-0.00088653,-0.00026191,0.00017100,0.00092548,0.00022324,0.00
 010358,0.00014755,0.00049681,-0.00002078,0.00023685,0.00013776,-0.0033
 0063,-0.00282757,0.00238584,-0.00020335,0.00076654,-0.00025827,-0.0003
 1106,0.00046580,-0.00006854,-0.00022663,0.00038761,0.00109773,-0.00013
 657,0.00009290,-0.00017401,0.00005954,-0.00000344,0.00007554,-0.102756
 20,0.26420444,-0.00018057,0.00085381,0.00078575,-0.00511632,0.01066122
 ,0.00179361,0.02847653,-0.05842401,-0.06556846,-0.00522065,0.01100301,
 0.00231199,-0.00085418,0.00097177,0.00114323,-0.00001181,-0.00007914,-
 0.00011971,0.01310138,-0.02666038,-0.00658915,0.00066318,-0.00020542,0
 .00038279,-0.00017852,-0.00027777,-0.00015287,0.00013004,-0.00014355,0
 .00016450,0.00119598,0.00217013,-0.00019124,-0.00019767,-0.00066545,0.
 00030242,0.00005972,-0.00021357,0.00014987,0.00032384,-0.00021127,-0.0
 0007665,0.00007067,-0.00015605,0.00002779,0.00000173,-0.00000157,-0.00
 003428,-0.03039322,0.06138823,0.06545765,-0.00101634,0.00132416,0.0034
 0157,-0.11391933,0.05027921,0.02435056,-0.02269919,0.02760662,0.010328
 29,0.00057066,0.00040001,-0.00009754,-0.00021251,0.00004857,-0.0002286
 0,-0.00015280,0.00037597,-0.00047817,0.00164402,-0.00005970,0.00123189
 ,0.00704238,-0.00959185,-0.00491988,0.00037947,-0.00028838,-0.00124200
 ,0.00073958,-0.00075451,-0.00136152,-0.00087414,0.00024245,0.00008571,
 0.00032788,0.00023177,-0.00005900,0.00005109,-0.00005459,0.00009645,0.
 00015737,-0.00004674,-0.00002986,0.00024081,-0.00016933,0.00059688,0.0
 0029633,0.00002889,-0.00017858,-0.00553361,0.00001287,-0.00143743,0.55
 364282,0.00064558,-0.00019571,-0.00541973,0.04803886,-0.15761115,-0.03
 274494,0.00526536,-0.00016806,0.00138251,-0.00038203,0.00238067,0.0002
 4756,0.00008599,-0.00047403,-0.00005874,-0.00037143,0.00238066,0.00026
 367,-0.00055976,0.00019616,-0.00016284,0.01746346,-0.02313890,-0.01190
 719,-0.00019674,0.00140561,0.00145168,-0.00005121,0.00019605,0.0005809
 5,0.00020438,-0.00052796,-0.00050727,-0.00017733,-0.00053805,0.0001645
 4,-0.00010695,-0.00005417,0.00007315,0.00018190,-0.00018944,-0.0001239
 7,0.00054774,-0.00052810,-0.00000530,-0.00021743,-0.00053829,0.0001057
 5,-0.00143052,0.00140488,-0.00034809,0.03884814,0.52694076,0.01882510,
 -0.02913029,-0.01730203,0.02435176,-0.03427375,-0.09480596,-0.00508160
 ,0.00937861,0.00435405,-0.00019483,-0.00024941,-0.00037778,-0.00022864
 ,-0.00003318,-0.00039129,-0.00037994,-0.00028361,0.00034561,-0.0010078
 5,0.00078605,0.00068834,-0.00493633,0.00656183,0.00319268,0.00087565,-
 0.00013201,-0.00658249,0.00087834,-0.00022921,0.00159290,0.00016048,0.
 00027772,0.00050804,-0.00016614,0.00006002,0.00020333,0.00009648,0.000
 03741,0.00012645,-0.00003001,0.00003209,0.00013403,0.00052159,-0.00032
 668,-0.00060687,-0.00007106,-0.00023705,0.00023509,-0.00355403,0.00031
 295,-0.00066855,0.02423636,-0.02648015,0.57265473,0.00032738,-0.000883
 22,-0.00126384,-0.01506145,-0.00212029,-0.00592167,-0.00006396,0.00350
 186,0.00200765,0.00036088,0.00015731,-0.00027190,-0.00000928,0.0000280
 2,-0.00020642,-0.00002214,-0.00010649,0.00032002,0.00022945,-0.0001313
 0,0.00001269,0.00071703,0.00021215,-0.00007057,0.00046668,0.00000632,0
 .00003158,0.00032905,0.00015857,0.00092154,0.00012584,0.00014301,0.000
 06276,-0.00006925,-0.00000217,0.00005652,0.00004200,-0.00002347,0.0000
 9101,0.00004489,0.00000027,0.00005453,-0.00021439,0.00004826,0.0000042
 2,-0.00003788,0.00003004,0.00007630,-0.00115785,0.00000143,-0.00028433
 ,-0.28702029,-0.01268276,-0.08808888,0.30846223,-0.00005184,0.00079596
 ,0.00115958,0.02450190,0.00148844,0.00923858,0.00191048,-0.00428748,-0
 .00255163,-0.00015705,-0.00072638,-0.00007492,0.00000675,0.00003033,-0
 .00001663,0.00001954,-0.00006793,0.00003647,-0.00028191,-0.00006609,-0
 .00014421,-0.00035420,0.00072479,0.00070924,-0.00022822,-0.00004468,0.
 00024538,-0.00040747,0.00017079,-0.00040241,0.00004215,0.00054934,0.00
 007922,-0.00001671,0.00029880,0.00002591,-0.00001552,0.00000706,-0.000
 06347,0.00001434,0.00002589,0.00012897,-0.00007460,-0.00000440,-0.0000
 1778,-0.00001369,0.00007165,0.00001099,0.00159093,-0.00005874,0.000272
 09,-0.01389088,-0.04593840,-0.00479162,0.01090026,0.04848237,0.0012381
 6,0.00018591,0.00119229,0.01200226,0.00140268,0.00267638,0.00101819,-0
 .00173866,-0.00083921,0.00001754,-0.00001492,0.00017236,-0.00011422,-0
 .00000860,0.00015029,-0.00008654,0.00009258,-0.00014713,0.00021322,-0.
 00008477,0.00038016,-0.00054354,0.00039956,0.00023374,-0.00012798,0.00
 009928,0.00016285,-0.00027745,-0.00020547,-0.00021355,0.00000578,-0.00
 006162,-0.00012262,0.00000856,-0.00004497,-0.00003678,-0.00003176,-0.0
 0001145,-0.00001511,-0.00002329,-0.00000993,0.00000253,-0.00006948,0.0
 0007227,0.00000154,-0.00000389,0.00000522,-0.00001456,0.00049340,-0.00
 007382,0.00055129,-0.08876348,-0.00431640,-0.07831881,0.09497500,0.006
 51289,0.08001475,-0.00176620,0.00289674,0.00035190,-0.00173832,-0.0020
 6578,0.01722955,0.00108714,-0.00049345,0.00153556,-0.00020962,-0.00012
 516,-0.00015977,0.00023788,0.00001831,-0.00001754,0.00028362,0.0000717
 4,-0.00001283,-0.00036025,0.00024840,-0.00054748,0.00050671,-0.0002954
 5,-0.00062579,0.00025335,0.00007029,0.00104635,0.00028350,0.00003148,0
 .00023417,-0.00000491,-0.00004978,0.00001241,-0.00004220,0.00000599,-0
 .00000561,-0.00002767,0.00000204,-0.00005902,-0.00000238,0.00000930,-0
 .00004179,-0.00011291,0.00010903,-0.00008764,-0.00006317,0.00004089,0.
 00001090,0.00023610,-0.00009019,-0.00021824,-0.04601503,-0.00059478,0.
 00548353,0.00249426,0.00197710,-0.02925963,0.04589073,0.00307461,-0.00
 428703,-0.00084531,0.00031761,0.00146670,-0.02618370,-0.00109944,0.000
 79557,-0.00037354,-0.00002665,-0.00006790,-0.00003145,0.00001797,0.000
 03031,-0.00000034,0.00001288,-0.00072622,0.00017431,0.00022663,0.00017
 135,0.00052605,-0.00078980,0.00072384,0.00007104,0.00032653,-0.0000597
 5,-0.00158080,0.00003186,-0.00006570,0.00031552,-0.00001052,-0.0000044
 9,0.00007576,-0.00001521,0.00007161,0.00000867,0.00005349,0.00000714,0
 .00003758,-0.00011487,0.00002578,-0.00006035,-0.00005878,0.00054920,-0
 .00006854,-0.00003036,0.00029882,0.00000584,-0.00031157,-0.00004485,0.
 00012342,-0.00059160,-0.04591561,0.01444810,0.00015440,-0.00125387,-0.
 00208736,-0.00210345,0.04845828,0.00134202,-0.00262298,0.00086250,-0.0
 0071254,0.00145306,-0.01062430,-0.00096654,0.00075399,0.00043317,0.000
 24668,0.00006568,0.00004044,-0.00010975,-0.00002310,-0.00009686,-0.000
 30204,-0.00014042,0.00024951,0.00065189,-0.00007226,0.00047515,-0.0001
 5212,-0.00034345,0.00044470,0.00026745,0.00002507,-0.00085884,0.000033
 74,0.00015351,0.00032572,0.00008622,-0.00007137,-0.00020791,0.00007464
 ,-0.00002990,-0.00001020,0.00006372,0.00002610,0.00005447,0.00003611,0
 .00000340,0.00004993,-0.00003050,-0.00011111,0.00011627,0.00005892,0.0
 0001815,-0.00004289,-0.00005844,-0.00004172,0.00039359,0.00615874,0.01
 315056,-0.31934707,0.00137783,0.00061112,-0.00840866,-0.00770649,-0.01
 227357,0.34260991,0.00042600,-0.00068807,-0.00024558,0.00885086,0.0158
 5998,-0.00650385,0.00097558,-0.00036039,-0.00067324,-0.00093511,-0.000
 08379,0.00021760,-0.00008751,0.00009064,0.00022728,0.00003906,-0.00052
 423,0.00049157,-0.00008266,-0.00003354,-0.00010558,-0.00140256,0.00333
 543,0.00147234,-0.00002487,-0.00006568,-0.00016888,-0.00003890,-0.0001
 0602,0.00010804,-0.00190460,0.00004424,0.00009608,0.00017202,-0.000075
 90,-0.00011011,-0.00001803,0.00001291,-0.00002265,-0.00004246,0.000039
 60,-0.00008610,-0.00014213,0.00025712,0.00078778,-0.00000615,0.0000389
 2,-0.00006604,0.00014945,-0.00028641,0.00006987,-0.08764917,-0.0945104
 8,0.02831002,-0.00994319,-0.02547136,0.00932913,-0.00093063,0.00093628
 ,-0.00035954,0.09259498,-0.00033986,0.00036608,0.00114705,-0.01027922,
 -0.02081442,0.00702975,-0.00119153,0.00036552,-0.00010197,-0.00012300,
 -0.00078773,-0.00022513,0.00008112,0.00032701,-0.00005541,0.00016582,-
 0.00078786,0.00019695,0.00010651,-0.00003763,-0.00002499,0.00342746,-0
 .00295609,-0.00233740,0.00009227,0.00017306,-0.00007879,0.00006197,-0.
 00003776,-0.00009011,-0.00014634,0.00112233,0.00019888,-0.00009654,0.0
 0047537,0.00005224,0.00003034,-0.00001160,-0.00002074,-0.00015735,0.00
 006008,0.00010727,-0.00023858,0.00112246,0.00006211,-0.00008424,0.0004
 7549,0.00007053,0.00010694,0.00017287,-0.00005741,-0.09395108,-0.25908
 691,0.06427217,0.00060780,-0.00019744,-0.00011243,0.00033673,-0.000173
 18,-0.00053075,0.10159077,0.28023033,-0.00088823,0.00011764,0.00061529
 ,-0.00648733,-0.01081453,0.00377372,-0.00003025,0.00059771,0.00006598,
 0.00011029,0.00053122,0.00031619,0.00022731,-0.00006194,0.00009043,0.0
 0059855,-0.00011506,-0.00065782,0.00009080,0.00010076,-0.00003800,0.00
 147232,-0.00227473,-0.00024644,0.00000140,0.00028190,0.00011056,-0.000
 08859,-0.00000552,-0.00008168,0.00009865,-0.00025894,0.00020366,0.0000
 0375,-0.00007187,-0.00007507,-0.00002267,-0.00000884,-0.00003572,-0.00
 008597,-0.00002717,-0.00010985,0.00078563,0.00005139,-0.00155873,-0.00
 017982,0.00009646,0.00010301,-0.00010078,-0.00004177,-0.00006359,0.028
 30962,0.06465422,-0.06563441,-0.00388405,-0.01096778,0.00257825,0.0128
 3746,0.02771868,-0.00645862,-0.03276813,-0.06950182,0.06710286\\0.0000
 0649,0.00000116,0.00000298,-0.00003226,0.00005942,0.00002291,-0.000000
 77,0.00000281,-0.00000798,0.00000107,-0.00000776,-0.00000475,-0.000011
 07,-0.00001541,0.00000752,0.00000537,-0.00000677,0.00000171,0.00000254
 ,0.00000473,0.00000958,-0.00000325,-0.00000781,0.00000253,-0.00000438,
 -0.00000443,0.00000320,-0.00000793,0.00000577,-0.00000568,0.00000308,0
 .00000011,0.00000212,0.00000643,-0.00000672,-0.00000362,0.00000290,0.0
 0000279,-0.00000232,0.00000506,-0.00000789,-0.00000337,-0.00000097,0.0
 0000011,-0.00000393,0.00000598,-0.00000734,-0.00000479,-0.00000480,-0.
 00000475,0.00000247,0.00003920,-0.00007107,-0.00002712,0.00000400,0.00
 002719,0.00001070,-0.00000864,0.00002755,-0.00000762,-0.00000807,0.000
 00831,0.00000546\\\@
 The archive entry for this job was punched.


 IF AT FIRST YOU DON'T SUCCEED, TRY, TRY AGAIN.
 THEN GIVE UP;
 THERE'S NO USE BEING A DAMN FOOL ABOUT IT.

                                 -- W. C. FIELDS
 Job cpu time:       0 days  0 hours 29 minutes 30.7 seconds.
 Elapsed time:       0 days  0 hours  1 minutes 52.2 seconds.
 File lengths (MBytes):  RWF=     66 Int=      0 D2E=      0 Chk=      5 Scr=      1
 Normal termination of Gaussian 16 at Mon Dec 27 16:52:59 2021.
